ITEM: TIMESTEP
0
ITEM: NUMBER OF ATOMS
1663
ITEM: BOX BOUNDS pp pp ff
-3.4695599999999999e+01 3.4695599999999999e+01
-3.2551210249505317e+01 3.2551210249505317e+01
-4.3369500000000002e+01 4.3369500000000002e+01
ITEM: ATOMS id type x y z c_1
1 1 -34.6956 -32.5512 0 -6.69
2 2 -33.25 -32.5512 0 -6.69
3 1 -32.5271 -31.2992 0 -6.69
17 1 -34.6956 -30.0473 0 -6.69
18 2 -33.25 -30.0473 0 -6.69
4 2 -31.0815 -31.2992 0 -6.69
5 1 -30.3587 -32.5512 0 -6.69
6 2 -28.913 -32.5512 0 -6.69
21 1 -30.3587 -30.0473 0 -6.69
22 2 -28.913 -30.0473 0 -6.69
7 1 -28.1902 -31.2992 0 -6.69
8 2 -26.7445 -31.2992 0 -6.69
9 1 -26.0217 -32.5512 0 -6.69
25 1 -26.0217 -30.0473 0 -6.69
10 2 -24.5761 -32.5512 0 -6.69
11 1 -23.8532 -31.2992 0 -6.69
26 2 -24.5761 -30.0473 0 -6.69
12 2 -22.4076 -31.2992 0 -6.69
13 1 -21.6848 -32.5512 0 -6.69
14 2 -20.2391 -32.5512 0 -6.69
29 1 -21.6848 -30.0473 0 -6.69
30 2 -20.2391 -30.0473 0 -6.69
15 1 -19.5163 -31.2992 0 -6.69
16 2 -18.0706 -31.2992 0 -6.69
19 1 -32.5271 -28.7953 0 -6.69
33 1 -34.6956 -27.5433 0 -6.69
34 2 -33.25 -27.5433 0 -6.69
20 2 -31.0815 -28.7953 0 -6.69
37 1 -30.3587 -27.5433 0 -6.69
38 2 -28.913 -27.5433 0 -6.69
23 1 -28.1902 -28.7953 0 -6.69
24 2 -26.7445 -28.7953 0 -6.69
41 1 -26.0217 -27.5433 0 -6.69
27 1 -23.8532 -28.7953 0 -6.69
42 2 -24.5761 -27.5433 0 -6.69
28 2 -22.4076 -28.7953 0 -6.69
45 1 -21.6848 -27.5433 0 -6.69
46 2 -20.2391 -27.5433 0 -6.69
31 1 -19.5163 -28.7953 0 -6.69
32 2 -18.0706 -28.7953 0 -6.69
35 1 -32.5271 -26.2914 0 -6.69
49 1 -34.6956 -25.0394 0 -6.69
50 2 -33.25 -25.0394 0 -6.69
36 2 -31.0815 -26.2914 0 -6.69
53 1 -30.3587 -25.0394 0 -6.69
54 2 -28.913 -25.0394 0 -6.69
39 1 -28.1902 -26.2914 0 -6.69
40 2 -26.7445 -26.2914 0 -6.69
57 1 -26.0217 -25.0394 0 -6.69
43 1 -23.8532 -26.2914 0 -6.69
58 2 -24.5761 -25.0394 0 -6.69
44 2 -22.4076 -26.2914 0 -6.69
61 1 -21.6848 -25.0394 0 -6.69
62 2 -20.2391 -25.0394 0 -6.69
47 1 -19.5163 -26.2914 0 -6.69
48 2 -18.0706 -26.2914 0 -6.69
51 1 -32.5271 -23.7874 0 -6.69
65 1 -34.6956 -22.5355 0 -6.69
66 2 -33.25 -22.5355 0 -6.69
52 2 -31.0815 -23.7874 0 -6.69
69 1 -30.3587 -22.5355 0 -6.69
70 2 -28.913 -22.5355 0 -6.69
55 1 -28.1902 -23.7874 0 -6.69
56 2 -26.7445 -23.7874 0 -6.69
73 1 -26.0217 -22.5355 0 -6.69
59 1 -23.8532 -23.7874 0 -6.69
74 2 -24.5761 -22.5355 0 -6.69
60 2 -22.4076 -23.7874 0 -6.69
77 1 -21.6848 -22.5355 0 -6.69
78 2 -20.2391 -22.5355 0 -6.69
63 1 -19.5163 -23.7874 0 -6.69
64 2 -18.0706 -23.7874 0 -6.69
67 1 -32.5271 -21.2835 0 -6.69
81 1 -34.6956 -20.0315 0 -6.69
82 2 -33.25 -20.0315 0 -6.69
68 2 -31.0815 -21.2835 0 -6.69
85 1 -30.3587 -20.0315 0 -6.69
86 2 -28.913 -20.0315 0 -6.69
71 1 -28.1902 -21.2835 0 -6.69
72 2 -26.7445 -21.2835 0 -6.69
89 1 -26.0217 -20.0315 0 -6.69
75 1 -23.8532 -21.2835 0 -6.69
90 2 -24.5761 -20.0315 0 -6.69
76 2 -22.4076 -21.2835 0 -6.69
93 1 -21.6848 -20.0315 0 -6.69
94 2 -20.2391 -20.0315 0 -6.69
79 1 -19.5163 -21.2835 0 -6.69
80 2 -18.0706 -21.2835 0 -6.69
83 1 -32.5271 -18.7795 0 -6.69
97 1 -34.6956 -17.5276 0 -6.69
98 2 -33.25 -17.5276 0 -6.69
84 2 -31.0815 -18.7795 0 -6.69
99 1 -30.3587 -17.5276 0 -6.69
100 2 -28.913 -17.5276 0 -6.69
87 1 -28.1902 -18.7795 0 -6.69
88 2 -26.7445 -18.7795 0 -6.69
101 1 -26.0217 -17.5276 0 -6.69
91 1 -23.8532 -18.7795 0 -6.69
102 2 -24.5761 -17.5276 0 -6.69
92 2 -22.4076 -18.7795 0 -6.69
103 1 -21.6848 -17.5276 0 -6.69
104 2 -20.2391 -17.5276 0 -6.69
95 1 -19.5163 -18.7795 0 -6.69
96 2 -18.0706 -18.7795 0 -6.69
105 1 -32.5271 -16.2756 0 -6.69
113 1 -34.6956 -15.0236 0 -6.69
114 2 -33.25 -15.0236 0 -6.69
115 1 -32.5271 -13.7717 0 -6.69
106 2 -31.0815 -16.2756 0 -6.69
116 2 -31.0815 -13.7717 0 -6.69
117 1 -30.3587 -15.0236 0 -6.69
118 2 -28.913 -15.0236 0 -6.69
107 1 -28.1902 -16.2756 0 -6.69
108 2 -26.7445 -16.2756 0 -6.69
119 1 -28.1902 -13.7717 0 -6.69
120 2 -26.7445 -13.7717 0 -6.69
121 1 -26.0217 -15.0236 0 -6.69
109 1 -23.8532 -16.2756 0 -6.69
122 2 -24.5761 -15.0236 0 -6.69
123 1 -23.8532 -13.7717 0 -6.69
110 2 -22.4076 -16.2756 0 -6.69
124 2 -22.4076 -13.7717 0 -6.69
125 1 -21.6848 -15.0236 0 -6.69
126 2 -20.2391 -15.0236 0 -6.69
111 1 -19.5163 -16.2756 0 -6.69
112 2 -18.0706 -16.2756 0 -6.69
127 1 -19.5163 -13.7717 0 -6.69
128 2 -18.0706 -13.7717 0 -6.69
129 1 -34.6956 -12.5197 0 -6.69
130 2 -33.25 -12.5197 0 -6.69
131 1 -32.5271 -11.2677 0 -6.69
132 2 -31.0815 -11.2677 0 -6.69
133 1 -30.3587 -12.5197 0 -6.69
134 2 -28.913 -12.5197 0 -6.69
135 1 -28.1902 -11.2677 0 -6.69
136 2 -26.7445 -11.2677 0 -6.69
137 1 -26.0217 -12.5197 0 -6.69
138 2 -24.5761 -12.5197 0 -6.69
139 1 -23.8532 -11.2677 0 -6.69
140 2 -22.4076 -11.2677 0 -6.69
141 1 -21.6848 -12.5197 0 -6.69
142 2 -20.2391 -12.5197 0 -6.69
143 1 -19.5163 -11.2677 0 -6.69
144 2 -18.0706 -11.2677 0 -6.69
145 1 -34.6956 -10.0158 0 -6.69
146 2 -33.25 -10.0158 0 -6.69
147 1 -32.5271 -8.76379 0 -6.69
148 2 -31.0815 -8.76379 0 -6.69
149 1 -30.3587 -10.0158 0 -6.69
150 2 -28.913 -10.0158 0 -6.69
151 1 -28.1902 -8.76379 0 -6.69
152 2 -26.7445 -8.76379 0 -6.69
153 1 -26.0217 -10.0158 0 -6.69
154 2 -24.5761 -10.0158 0 -6.69
155 1 -23.8532 -8.76379 0 -6.69
156 2 -22.4076 -8.76379 0 -6.69
157 1 -21.6848 -10.0158 0 -6.69
158 2 -20.2391 -10.0158 0 -6.69
159 1 -19.5163 -8.76379 0 -6.69
160 2 -18.0706 -8.76379 0 -6.69
161 1 -34.6956 -7.51182 0 -6.69
162 2 -33.25 -7.51182 0 -6.69
163 1 -32.5271 -6.25985 0 -6.69
164 2 -31.0815 -6.25985 0 -6.69
165 1 -30.3587 -7.51182 0 -6.69
166 2 -28.913 -7.51182 0 -6.69
167 1 -28.1902 -6.25985 0 -6.69
168 2 -26.7445 -6.25985 0 -6.69
169 1 -26.0217 -7.51182 0 -6.69
170 2 -24.5761 -7.51182 0 -6.69
171 1 -23.8532 -6.25985 0 -6.69
172 2 -22.4076 -6.25985 0 -6.69
173 1 -21.6848 -7.51182 0 -6.69
174 2 -20.2391 -7.51182 0 -6.69
175 1 -19.5163 -6.25985 0 -6.69
176 2 -18.0706 -6.25985 0 -6.69
177 1 -34.6956 -5.00788 0 -6.69
178 2 -33.25 -5.00788 0 -6.69
179 1 -32.5271 -3.75591 0 -6.69
180 2 -31.0815 -3.75591 0 -6.69
181 1 -30.3587 -5.00788 0 -6.69
182 2 -28.913 -5.00788 0 -6.69
183 1 -28.1902 -3.75591 0 -6.69
184 2 -26.7445 -3.75591 0 -6.69
185 1 -26.0217 -5.00788 0 -6.69
186 2 -24.5761 -5.00788 0 -6.69
187 1 -23.8532 -3.75591 0 -6.69
188 2 -22.4076 -3.75591 0 -6.69
189 1 -21.6848 -5.00788 0 -6.69
190 2 -20.2391 -5.00788 0 -6.69
191 1 -19.5163 -3.75591 0 -6.69
192 2 -18.0706 -3.75591 0 -6.69
193 1 -34.6956 -2.50394 0 -6.69
194 2 -33.25 -2.50394 0 -6.69
195 1 -32.5271 -1.25197 0 -6.69
196 2 -31.0815 -1.25197 0 -6.69
197 1 -30.3587 -2.50394 0 -6.69
198 2 -28.913 -2.50394 0 -6.69
199 1 -28.1902 -1.25197 0 -6.69
200 2 -26.7445 -1.25197 0 -6.69
201 1 -26.0217 -2.50394 0 -6.69
202 2 -24.5761 -2.50394 0 -6.69
203 1 -23.8532 -1.25197 0 -6.69
204 2 -22.4076 -1.25197 0 -6.69
205 1 -21.6848 -2.50394 0 -6.69
206 2 -20.2391 -2.50394 0 -6.69
207 1 -19.5163 -1.25197 0 -6.69
208 2 -18.0706 -1.25197 0 -6.69
209 1 -34.6956 0 0 -6.69
210 2 -33.25 0 0 -6.69
211 1 -32.5271 1.25197 0 -6.69
225 1 -34.6956 2.50394 0 -6.69
226 2 -33.25 2.50394 0 -6.69
212 2 -31.0815 1.25197 0 -6.69
213 1 -30.3587 0 0 -6.69
214 2 -28.913 0 0 -6.69
229 1 -30.3587 2.50394 0 -6.69
230 2 -28.913 2.50394 0 -6.69
215 1 -28.1902 1.25197 0 -6.69
216 2 -26.7445 1.25197 0 -6.69
217 1 -26.0217 0 0 -6.69
233 1 -26.0217 2.50394 0 -6.69
218 2 -24.5761 0 0 -6.69
219 1 -23.8532 1.25197 0 -6.69
234 2 -24.5761 2.50394 0 -6.69
220 2 -22.4076 1.25197 0 -6.69
221 1 -21.6848 0 0 -6.69
222 2 -20.2391 0 0 -6.69
237 1 -21.6848 2.50394 0 -6.69
238 2 -20.2391 2.50394 0 -6.69
223 1 -19.5163 1.25197 0 -6.69
224 2 -18.0706 1.25197 0 -6.69
227 1 -32.5271 3.75591 0 -6.69
241 1 -34.6956 5.00788 0 -6.69
242 2 -33.25 5.00788 0 -6.69
228 2 -31.0815 3.75591 0 -6.69
245 1 -30.3587 5.00788 0 -6.69
246 2 -28.913 5.00788 0 -6.69
231 1 -28.1902 3.75591 0 -6.69
232 2 -26.7445 3.75591 0 -6.69
249 1 -26.0217 5.00788 0 -6.69
235 1 -23.8532 3.75591 0 -6.69
250 2 -24.5761 5.00788 0 -6.69
236 2 -22.4076 3.75591 0 -6.69
253 1 -21.6848 5.00788 0 -6.69
254 2 -20.2391 5.00788 0 -6.69
239 1 -19.5163 3.75591 0 -6.69
240 2 -18.0706 3.75591 0 -6.69
243 1 -32.5271 6.25985 0 -6.69
257 1 -34.6956 7.51182 0 -6.69
258 2 -33.25 7.51182 0 -6.69
244 2 -31.0815 6.25985 0 -6.69
261 1 -30.3587 7.51182 0 -6.69
262 2 -28.913 7.51182 0 -6.69
247 1 -28.1902 6.25985 0 -6.69
248 2 -26.7445 6.25985 0 -6.69
265 1 -26.0217 7.51182 0 -6.69
251 1 -23.8532 6.25985 0 -6.69
266 2 -24.5761 7.51182 0 -6.69
252 2 -22.4076 6.25985 0 -6.69
269 1 -21.6848 7.51182 0 -6.69
270 2 -20.2391 7.51182 0 -6.69
255 1 -19.5163 6.25985 0 -6.69
256 2 -18.0706 6.25985 0 -6.69
259 1 -32.5271 8.76379 0 -6.69
273 1 -34.6956 10.0158 0 -6.69
274 2 -33.25 10.0158 0 -6.69
260 2 -31.0815 8.76379 0 -6.69
277 1 -30.3587 10.0158 0 -6.69
278 2 -28.913 10.0158 0 -6.69
263 1 -28.1902 8.76379 0 -6.69
264 2 -26.7445 8.76379 0 -6.69
281 1 -26.0217 10.0158 0 -6.69
267 1 -23.8532 8.76379 0 -6.69
282 2 -24.5761 10.0158 0 -6.69
268 2 -22.4076 8.76379 0 -6.69
285 1 -21.6848 10.0158 0 -6.69
286 2 -20.2391 10.0158 0 -6.69
271 1 -19.5163 8.76379 0 -6.69
272 2 -18.0706 8.76379 0 -6.69
275 1 -32.5271 11.2677 0 -6.69
289 1 -34.6956 12.5197 0 -6.69
290 2 -33.25 12.5197 0 -6.69
276 2 -31.0815 11.2677 0 -6.69
293 1 -30.3587 12.5197 0 -6.69
294 2 -28.913 12.5197 0 -6.69
279 1 -28.1902 11.2677 0 -6.69
280 2 -26.7445 11.2677 0 -6.69
297 1 -26.0217 12.5197 0 -6.69
283 1 -23.8532 11.2677 0 -6.69
298 2 -24.5761 12.5197 0 -6.69
284 2 -22.4076 11.2677 0 -6.69
301 1 -21.6848 12.5197 0 -6.69
302 2 -20.2391 12.5197 0 -6.69
287 1 -19.5163 11.2677 0 -6.69
288 2 -18.0706 11.2677 0 -6.69
291 1 -32.5271 13.7717 0 -6.69
305 1 -34.6956 15.0236 0 -6.69
306 2 -33.25 15.0236 0 -6.69
292 2 -31.0815 13.7717 0 -6.69
307 1 -30.3587 15.0236 0 -6.69
308 2 -28.913 15.0236 0 -6.69
295 1 -28.1902 13.7717 0 -6.69
296 2 -26.7445 13.7717 0 -6.69
309 1 -26.0217 15.0236 0 -6.69
299 1 -23.8532 13.7717 0 -6.69
310 2 -24.5761 15.0236 0 -6.69
300 2 -22.4076 13.7717 0 -6.69
311 1 -21.6848 15.0236 0 -6.69
312 2 -20.2391 15.0236 0 -6.69
303 1 -19.5163 13.7717 0 -6.69
304 2 -18.0706 13.7717 0 -6.69
313 1 -32.5271 16.2756 0 -6.69
321 1 -34.6956 17.5276 0 -6.69
322 2 -33.25 17.5276 0 -6.69
323 1 -32.5271 18.7795 0 -6.69
314 2 -31.0815 16.2756 0 -6.69
324 2 -31.0815 18.7795 0 -6.69
325 1 -30.3587 17.5276 0 -6.69
326 2 -28.913 17.5276 0 -6.69
315 1 -28.1902 16.2756 0 -6.69
316 2 -26.7445 16.2756 0 -6.69
327 1 -28.1902 18.7795 0 -6.69
328 2 -26.7445 18.7795 0 -6.69
329 1 -26.0217 17.5276 0 -6.69
317 1 -23.8532 16.2756 0 -6.69
330 2 -24.5761 17.5276 0 -6.69
331 1 -23.8532 18.7795 0 -6.69
318 2 -22.4076 16.2756 0 -6.69
332 2 -22.4076 18.7795 0 -6.69
333 1 -21.6848 17.5276 0 -6.69
334 2 -20.2391 17.5276 0 -6.69
319 1 -19.5163 16.2756 0 -6.69
320 2 -18.0706 16.2756 0 -6.69
335 1 -19.5163 18.7795 0 -6.69
336 2 -18.0706 18.7795 0 -6.69
337 1 -34.6956 20.0315 0 -6.69
338 2 -33.25 20.0315 0 -6.69
339 1 -32.5271 21.2835 0 -6.69
340 2 -31.0815 21.2835 0 -6.69
341 1 -30.3587 20.0315 0 -6.69
342 2 -28.913 20.0315 0 -6.69
343 1 -28.1902 21.2835 0 -6.69
344 2 -26.7445 21.2835 0 -6.69
345 1 -26.0217 20.0315 0 -6.69
346 2 -24.5761 20.0315 0 -6.69
347 1 -23.8532 21.2835 0 -6.69
348 2 -22.4076 21.2835 0 -6.69
349 1 -21.6848 20.0315 0 -6.69
350 2 -20.2391 20.0315 0 -6.69
351 1 -19.5163 21.2835 0 -6.69
352 2 -18.0706 21.2835 0 -6.69
353 1 -34.6956 22.5355 0 -6.69
354 2 -33.25 22.5355 0 -6.69
355 1 -32.5271 23.7874 0 -6.69
356 2 -31.0815 23.7874 0 -6.69
357 1 -30.3587 22.5355 0 -6.69
358 2 -28.913 22.5355 0 -6.69
359 1 -28.1902 23.7874 0 -6.69
360 2 -26.7445 23.7874 0 -6.69
361 1 -26.0217 22.5355 0 -6.69
362 2 -24.5761 22.5355 0 -6.69
363 1 -23.8532 23.7874 0 -6.69
364 2 -22.4076 23.7874 0 -6.69
365 1 -21.6848 22.5355 0 -6.69
366 2 -20.2391 22.5355 0 -6.69
367 1 -19.5163 23.7874 0 -6.69
368 2 -18.0706 23.7874 0 -6.69
369 1 -34.6956 25.0394 0 -6.69
370 2 -33.25 25.0394 0 -6.69
371 1 -32.5271 26.2914 0 -6.69
372 2 -31.0815 26.2914 0 -6.69
373 1 -30.3587 25.0394 0 -6.69
374 2 -28.913 25.0394 0 -6.69
375 1 -28.1902 26.2914 0 -6.69
376 2 -26.7445 26.2914 0 -6.69
377 1 -26.0217 25.0394 0 -6.69
378 2 -24.5761 25.0394 0 -6.69
379 1 -23.8532 26.2914 0 -6.69
380 2 -22.4076 26.2914 0 -6.69
381 1 -21.6848 25.0394 0 -6.69
382 2 -20.2391 25.0394 0 -6.69
383 1 -19.5163 26.2914 0 -6.69
384 2 -18.0706 26.2914 0 -6.69
385 1 -34.6956 27.5433 0 -6.69
386 2 -33.25 27.5433 0 -6.69
387 1 -32.5271 28.7953 0 -6.69
388 2 -31.0815 28.7953 0 -6.69
389 1 -30.3587 27.5433 0 -6.69
390 2 -28.913 27.5433 0 -6.69
391 1 -28.1902 28.7953 0 -6.69
392 2 -26.7445 28.7953 0 -6.69
393 1 -26.0217 27.5433 0 -6.69
394 2 -24.5761 27.5433 0 -6.69
395 1 -23.8532 28.7953 0 -6.69
396 2 -22.4076 28.7953 0 -6.69
397 1 -21.6848 27.5433 0 -6.69
398 2 -20.2391 27.5433 0 -6.69
399 1 -19.5163 28.7953 0 -6.69
400 2 -18.0706 28.7953 0 -6.69
401 1 -34.6956 30.0473 0 -6.69
402 2 -33.25 30.0473 0 -6.69
403 1 -32.5271 31.2992 0 -6.69
404 2 -31.0815 31.2992 0 -6.69
405 1 -30.3587 30.0473 0 -6.69
406 2 -28.913 30.0473 0 -6.69
407 1 -28.1902 31.2992 0 -6.69
408 2 -26.7445 31.2992 0 -6.69
409 1 -26.0217 30.0473 0 -6.69
410 2 -24.5761 30.0473 0 -6.69
411 1 -23.8532 31.2992 0 -6.69
412 2 -22.4076 31.2992 0 -6.69
413 1 -21.6848 30.0473 0 -6.69
414 2 -20.2391 30.0473 0 -6.69
415 1 -19.5163 31.2992 0 -6.69
416 2 -18.0706 31.2992 0 -6.69
417 1 -17.3478 -32.5512 0 -6.69
418 2 -15.9022 -32.5512 0 -6.69
419 1 -15.1793 -31.2992 0 -6.69
433 1 -17.3478 -30.0473 0 -6.69
434 2 -15.9022 -30.0473 0 -6.69
420 2 -13.7337 -31.2992 0 -6.69
421 1 -13.0109 -32.5512 0 -6.69
422 2 -11.5652 -32.5512 0 -6.69
437 1 -13.0109 -30.0473 0 -6.69
438 2 -11.5652 -30.0473 0 -6.69
423 1 -10.8424 -31.2992 0 -6.69
424 2 -9.39672 -31.2992 0 -6.69
425 1 -8.6739 -32.5512 0 -6.69
426 2 -7.22825 -32.5512 0 -6.69
427 1 -6.50543 -31.2992 0 -6.69
441 1 -8.6739 -30.0473 0 -6.69
442 2 -7.22825 -30.0473 0 -6.69
428 2 -5.05978 -31.2992 0 -6.69
429 1 -4.33695 -32.5512 0 -6.69
430 2 -2.8913 -32.5512 0 -6.69
445 1 -4.33695 -30.0473 0 -6.69
446 2 -2.8913 -30.0473 0 -6.69
431 1 -2.16847 -31.2992 0 -6.69
432 2 -0.722825 -31.2992 0 -6.69
435 1 -15.1793 -28.7953 0 -6.69
449 1 -17.3478 -27.5433 0 -6.69
450 2 -15.9022 -27.5433 0 -6.69
436 2 -13.7337 -28.7953 0 -6.69
453 1 -13.0109 -27.5433 0 -6.69
454 2 -11.5652 -27.5433 0 -6.69
439 1 -10.8424 -28.7953 0 -6.69
440 2 -9.39672 -28.7953 0 -6.69
443 1 -6.50543 -28.7953 0 -6.69
457 1 -8.6739 -27.5433 0 -6.69
458 2 -7.22825 -27.5433 0 -6.69
444 2 -5.05978 -28.7953 0 -6.69
461 1 -4.33695 -27.5433 0 -6.69
462 2 -2.8913 -27.5433 0 -6.69
447 1 -2.16847 -28.7953 0 -6.69
448 2 -0.722825 -28.7953 0 -6.69
451 1 -15.1793 -26.2914 0 -6.69
465 1 -17.3478 -25.0394 0 -6.69
466 2 -15.9022 -25.0394 0 -6.69
452 2 -13.7337 -26.2914 0 -6.69
469 1 -13.0109 -25.0394 0 -6.69
470 2 -11.5652 -25.0394 0 -6.69
455 1 -10.8424 -26.2914 0 -6.69
456 2 -9.39672 -26.2914 0 -6.69
459 1 -6.50543 -26.2914 0 -6.69
473 1 -8.6739 -25.0394 0 -6.69
474 2 -7.22825 -25.0394 0 -6.69
460 2 -5.05978 -26.2914 0 -6.69
477 1 -4.33695 -25.0394 0 -6.69
478 2 -2.8913 -25.0394 0 -6.69
463 1 -2.16847 -26.2914 0 -6.69
464 2 -0.722825 -26.2914 0 -6.69
467 1 -15.1793 -23.7874 0 -6.69
481 1 -17.3478 -22.5355 0 -6.69
482 2 -15.9022 -22.5355 0 -6.69
468 2 -13.7337 -23.7874 0 -6.69
485 1 -13.0109 -22.5355 0 -6.69
486 2 -11.5652 -22.5355 0 -6.69
471 1 -10.8424 -23.7874 0 -6.69
472 2 -9.39672 -23.7874 0 -6.69
475 1 -6.50543 -23.7874 0 -6.69
489 1 -8.6739 -22.5355 0 -6.69
490 2 -7.22825 -22.5355 0 -6.69
476 2 -5.05978 -23.7874 0 -6.69
493 1 -4.33695 -22.5355 0 -6.69
494 2 -2.8913 -22.5355 0 -6.69
479 1 -2.16847 -23.7874 0 -6.69
480 2 -0.722825 -23.7874 0 -6.69
483 1 -15.1793 -21.2835 0 -6.69
497 1 -17.3478 -20.0315 0 -6.69
498 2 -15.9022 -20.0315 0 -6.69
484 2 -13.7337 -21.2835 0 -6.69
501 1 -13.0109 -20.0315 0 -6.69
502 2 -11.5652 -20.0315 0 -6.69
487 1 -10.8424 -21.2835 0 -6.69
488 2 -9.39672 -21.2835 0 -6.69
491 1 -6.50543 -21.2835 0 -6.69
505 1 -8.6739 -20.0315 0 -6.69
506 2 -7.22825 -20.0315 0 -6.69
492 2 -5.05978 -21.2835 0 -6.69
509 1 -4.33695 -20.0315 0 -6.69
510 2 -2.8913 -20.0315 0 -6.69
495 1 -2.16847 -21.2835 0 -6.69
496 2 -0.722825 -21.2835 0 -6.69
499 1 -15.1793 -18.7795 0 -6.69
513 1 -17.3478 -17.5276 0 -6.69
514 2 -15.9022 -17.5276 0 -6.69
500 2 -13.7337 -18.7795 0 -6.69
515 1 -13.0109 -17.5276 0 -6.69
516 2 -11.5652 -17.5276 0 -6.69
503 1 -10.8424 -18.7795 0 -6.69
504 2 -9.39672 -18.7795 0 -6.69
507 1 -6.50543 -18.7795 0 -6.69
517 1 -8.6739 -17.5276 0 -6.69
518 2 -7.22825 -17.5276 0 -6.69
508 2 -5.05978 -18.7795 0 -6.69
519 1 -4.33695 -17.5276 0 -6.69
520 2 -2.8913 -17.5276 0 -6.69
511 1 -2.16847 -18.7795 0 -6.69
512 2 -0.722825 -18.7795 0 -6.69
521 1 -15.1793 -16.2756 0 -6.69
529 1 -17.3478 -15.0236 0 -6.69
530 2 -15.9022 -15.0236 0 -6.69
531 1 -15.1793 -13.7717 0 -6.69
522 2 -13.7337 -16.2756 0 -6.69
532 2 -13.7337 -13.7717 0 -6.69
533 1 -13.0109 -15.0236 0 -6.69
534 2 -11.5652 -15.0236 0 -6.69
523 1 -10.8424 -16.2756 0 -6.69
524 2 -9.39672 -16.2756 0 -6.69
535 1 -10.8424 -13.7717 0 -6.69
536 2 -9.39672 -13.7717 0 -6.69
525 1 -6.50543 -16.2756 0 -6.69
537 1 -8.6739 -15.0236 0 -6.69
538 2 -7.22825 -15.0236 0 -6.69
539 1 -6.50543 -13.7717 0 -6.69
526 2 -5.05978 -16.2756 0 -6.69
540 2 -5.05978 -13.7717 0 -6.69
541 1 -4.33695 -15.0236 0 -6.69
542 2 -2.8913 -15.0236 0 -6.69
527 1 -2.16847 -16.2756 0 -6.69
528 2 -0.722825 -16.2756 0 -6.69
543 1 -2.16847 -13.7717 0 -6.69
544 2 -0.722825 -13.7717 0 -6.69
545 1 -17.3478 -12.5197 0 -6.69
546 2 -15.9022 -12.5197 0 -6.69
547 1 -15.1793 -11.2677 0 -6.69
548 2 -13.7337 -11.2677 0 -6.69
549 1 -13.0109 -12.5197 0 -6.69
550 2 -11.5652 -12.5197 0 -6.69
551 1 -10.8424 -11.2677 0 -6.69
552 2 -9.39672 -11.2677 0 -6.69
553 1 -8.6739 -12.5197 0 -6.69
554 2 -7.22825 -12.5197 0 -6.69
555 1 -6.50543 -11.2677 0 -6.69
556 2 -5.05978 -11.2677 0 -6.69
557 1 -4.33695 -12.5197 0 -6.69
558 2 -2.8913 -12.5197 0 -6.69
559 1 -2.16847 -11.2677 0 -6.69
560 2 -0.722825 -11.2677 0 -6.69
561 1 -17.3478 -10.0158 0 -6.69
562 2 -15.9022 -10.0158 0 -6.69
563 1 -15.1793 -8.76379 0 -6.69
564 2 -13.7337 -8.76379 0 -6.69
565 1 -13.0109 -10.0158 0 -6.69
566 2 -11.5652 -10.0158 0 -6.69
567 1 -10.8424 -8.76379 0 -6.69
568 2 -9.39672 -8.76379 0 -6.69
569 1 -8.6739 -10.0158 0 -6.69
570 2 -7.22825 -10.0158 0 -6.69
571 1 -6.50543 -8.76379 0 -6.69
572 2 -5.05978 -8.76379 0 -6.69
573 1 -4.33695 -10.0158 0 -6.69
574 2 -2.8913 -10.0158 0 -6.69
575 1 -2.16847 -8.76379 0 -6.69
576 2 -0.722825 -8.76379 0 -6.69
577 1 -17.3478 -7.51182 0 -6.69
578 2 -15.9022 -7.51182 0 -6.69
579 1 -15.1793 -6.25985 0 -6.69
580 2 -13.7337 -6.25985 0 -6.69
581 1 -13.0109 -7.51182 0 -6.69
582 2 -11.5652 -7.51182 0 -6.69
583 1 -10.8424 -6.25985 0 -6.69
584 2 -9.39672 -6.25985 0 -6.69
585 1 -8.6739 -7.51182 0 -6.69
586 2 -7.22825 -7.51182 0 -6.69
587 1 -6.50543 -6.25985 0 -6.69
588 2 -5.05978 -6.25985 0 -6.69
589 1 -4.33695 -7.51182 0 -6.69
590 2 -2.8913 -7.51182 0 -6.69
591 1 -2.16847 -6.25985 0 -6.69
592 2 -0.722825 -6.25985 0 -6.69
593 1 -17.3478 -5.00788 0 -6.69
594 2 -15.9022 -5.00788 0 -6.69
595 1 -15.1793 -3.75591 0 -6.69
596 2 -13.7337 -3.75591 0 -6.69
597 1 -13.0109 -5.00788 0 -6.69
598 2 -11.5652 -5.00788 0 -6.69
599 1 -10.8424 -3.75591 0 -6.69
600 2 -9.39672 -3.75591 0 -6.69
601 1 -8.6739 -5.00788 0 -6.69
602 2 -7.22825 -5.00788 0 -6.69
603 1 -6.50543 -3.75591 0 -6.69
604 2 -5.05978 -3.75591 0 -6.69
605 1 -4.33695 -5.00788 0 -6.69
606 2 -2.8913 -5.00788 0 -6.69
607 1 -2.16847 -3.75591 0 -6.69
608 2 -0.722825 -3.75591 0 -6.65404
609 1 -17.3478 -2.50394 0 -6.69
610 2 -15.9022 -2.50394 0 -6.69
611 1 -15.1793 -1.25197 0 -6.69
612 2 -13.7337 -1.25197 0 -6.69
613 1 -13.0109 -2.50394 0 -6.69
614 2 -11.5652 -2.50394 0 -6.69
615 1 -10.8424 -1.25197 0 -6.69
616 2 -9.39672 -1.25197 0 -6.69
617 1 -8.6739 -2.50394 0 -6.69
618 2 -7.22825 -2.50394 0 -6.69
619 1 -6.50543 -1.25197 0 -6.69
620 2 -5.05978 -1.25197 0 -6.69
621 1 -4.33695 -2.50394 0 -6.69
622 2 -2.8913 -2.50394 0 -6.65403
623 1 -2.16847 -1.25197 0 -4.38807
624 1 -17.3478 0 0 -6.69
625 2 -15.9022 0 0 -6.69
626 1 -15.1793 1.25197 0 -6.69
640 1 -17.3478 2.50394 0 -6.69
641 2 -15.9022 2.50394 0 -6.69
627 2 -13.7337 1.25197 0 -6.69
628 1 -13.0109 0 0 -6.69
629 2 -11.5652 0 0 -6.69
644 1 -13.0109 2.50394 0 -6.69
645 2 -11.5652 2.50394 0 -6.69
630 1 -10.8424 1.25197 0 -6.69
631 2 -9.39672 1.25197 0 -6.69
632 1 -8.6739 0 0 -6.69
633 2 -7.22825 0 0 -6.69
634 1 -6.50543 1.25197 0 -6.69
648 1 -8.6739 2.50394 0 -6.69
649 2 -7.22825 2.50394 0 -6.69
635 2 -5.05978 1.25197 0 -6.69
636 1 -4.33695 0 0 -6.69
637 2 -2.8913 0 0 -6.65403
652 1 -4.33695 2.50394 0 -6.69
653 2 -2.8913 2.50394 0 -6.69
638 1 -2.16847 1.25197 0 -6.69
639 2 -0.722825 1.25197 0 -6.65404
642 1 -15.1793 3.75591 0 -6.69
656 1 -17.3478 5.00788 0 -6.69
657 2 -15.9022 5.00788 0 -6.69
643 2 -13.7337 3.75591 0 -6.69
660 1 -13.0109 5.00788 0 -6.69
661 2 -11.5652 5.00788 0 -6.69
646 1 -10.8424 3.75591 0 -6.69
647 2 -9.39672 3.75591 0 -6.69
650 1 -6.50543 3.75591 0 -6.69
664 1 -8.6739 5.00788 0 -6.69
665 2 -7.22825 5.00788 0 -6.69
651 2 -5.05978 3.75591 0 -6.69
668 1 -4.33695 5.00788 0 -6.69
669 2 -2.8913 5.00788 0 -6.69
654 1 -2.16847 3.75591 0 -6.69
655 2 -0.722825 3.75591 0 -6.69
658 1 -15.1793 6.25985 0 -6.69
672 1 -17.3478 7.51182 0 -6.69
673 2 -15.9022 7.51182 0 -6.69
659 2 -13.7337 6.25985 0 -6.69
676 1 -13.0109 7.51182 0 -6.69
677 2 -11.5652 7.51182 0 -6.69
662 1 -10.8424 6.25985 0 -6.69
663 2 -9.39672 6.25985 0 -6.69
666 1 -6.50543 6.25985 0 -6.69
680 1 -8.6739 7.51182 0 -6.69
681 2 -7.22825 7.51182 0 -6.69
667 2 -5.05978 6.25985 0 -6.69
684 1 -4.33695 7.51182 0 -6.69
685 2 -2.8913 7.51182 0 -6.69
670 1 -2.16847 6.25985 0 -6.69
671 2 -0.722825 6.25985 0 -6.69
674 1 -15.1793 8.76379 0 -6.69
688 1 -17.3478 10.0158 0 -6.69
689 2 -15.9022 10.0158 0 -6.69
675 2 -13.7337 8.76379 0 -6.69
692 1 -13.0109 10.0158 0 -6.69
693 2 -11.5652 10.0158 0 -6.69
678 1 -10.8424 8.76379 0 -6.69
679 2 -9.39672 8.76379 0 -6.69
682 1 -6.50543 8.76379 0 -6.69
696 1 -8.6739 10.0158 0 -6.69
697 2 -7.22825 10.0158 0 -6.69
683 2 -5.05978 8.76379 0 -6.69
700 1 -4.33695 10.0158 0 -6.69
701 2 -2.8913 10.0158 0 -6.69
686 1 -2.16847 8.76379 0 -6.69
687 2 -0.722825 8.76379 0 -6.69
690 1 -15.1793 11.2677 0 -6.69
704 1 -17.3478 12.5197 0 -6.69
705 2 -15.9022 12.5197 0 -6.69
691 2 -13.7337 11.2677 0 -6.69
708 1 -13.0109 12.5197 0 -6.69
709 2 -11.5652 12.5197 0 -6.69
694 1 -10.8424 11.2677 0 -6.69
695 2 -9.39672 11.2677 0 -6.69
698 1 -6.50543 11.2677 0 -6.69
712 1 -8.6739 12.5197 0 -6.69
713 2 -7.22825 12.5197 0 -6.69
699 2 -5.05978 11.2677 0 -6.69
716 1 -4.33695 12.5197 0 -6.69
717 2 -2.8913 12.5197 0 -6.69
702 1 -2.16847 11.2677 0 -6.69
703 2 -0.722825 11.2677 0 -6.69
706 1 -15.1793 13.7717 0 -6.69
720 1 -17.3478 15.0236 0 -6.69
721 2 -15.9022 15.0236 0 -6.69
707 2 -13.7337 13.7717 0 -6.69
722 1 -13.0109 15.0236 0 -6.69
723 2 -11.5652 15.0236 0 -6.69
710 1 -10.8424 13.7717 0 -6.69
711 2 -9.39672 13.7717 0 -6.69
714 1 -6.50543 13.7717 0 -6.69
724 1 -8.6739 15.0236 0 -6.69
725 2 -7.22825 15.0236 0 -6.69
715 2 -5.05978 13.7717 0 -6.69
726 1 -4.33695 15.0236 0 -6.69
727 2 -2.8913 15.0236 0 -6.69
718 1 -2.16847 13.7717 0 -6.69
719 2 -0.722825 13.7717 0 -6.69
728 1 -15.1793 16.2756 0 -6.69
736 1 -17.3478 17.5276 0 -6.69
737 2 -15.9022 17.5276 0 -6.69
738 1 -15.1793 18.7795 0 -6.69
729 2 -13.7337 16.2756 0 -6.69
739 2 -13.7337 18.7795 0 -6.69
740 1 -13.0109 17.5276 0 -6.69
741 2 -11.5652 17.5276 0 -6.69
730 1 -10.8424 16.2756 0 -6.69
731 2 -9.39672 16.2756 0 -6.69
742 1 -10.8424 18.7795 0 -6.69
743 2 -9.39672 18.7795 0 -6.69
732 1 -6.50543 16.2756 0 -6.69
744 1 -8.6739 17.5276 0 -6.69
745 2 -7.22825 17.5276 0 -6.69
746 1 -6.50543 18.7795 0 -6.69
733 2 -5.05978 16.2756 0 -6.69
747 2 -5.05978 18.7795 0 -6.69
748 1 -4.33695 17.5276 0 -6.69
749 2 -2.8913 17.5276 0 -6.69
734 1 -2.16847 16.2756 0 -6.69
735 2 -0.722825 16.2756 0 -6.69
750 1 -2.16847 18.7795 0 -6.69
751 2 -0.722825 18.7795 0 -6.69
752 1 -17.3478 20.0315 0 -6.69
753 2 -15.9022 20.0315 0 -6.69
754 1 -15.1793 21.2835 0 -6.69
755 2 -13.7337 21.2835 0 -6.69
756 1 -13.0109 20.0315 0 -6.69
757 2 -11.5652 20.0315 0 -6.69
758 1 -10.8424 21.2835 0 -6.69
759 2 -9.39672 21.2835 0 -6.69
760 1 -8.6739 20.0315 0 -6.69
761 2 -7.22825 20.0315 0 -6.69
762 1 -6.50543 21.2835 0 -6.69
763 2 -5.05978 21.2835 0 -6.69
764 1 -4.33695 20.0315 0 -6.69
765 2 -2.8913 20.0315 0 -6.69
766 1 -2.16847 21.2835 0 -6.69
767 2 -0.722825 21.2835 0 -6.69
768 1 -17.3478 22.5355 0 -6.69
769 2 -15.9022 22.5355 0 -6.69
770 1 -15.1793 23.7874 0 -6.69
771 2 -13.7337 23.7874 0 -6.69
772 1 -13.0109 22.5355 0 -6.69
773 2 -11.5652 22.5355 0 -6.69
774 1 -10.8424 23.7874 0 -6.69
775 2 -9.39672 23.7874 0 -6.69
776 1 -8.6739 22.5355 0 -6.69
777 2 -7.22825 22.5355 0 -6.69
778 1 -6.50543 23.7874 0 -6.69
779 2 -5.05978 23.7874 0 -6.69
780 1 -4.33695 22.5355 0 -6.69
781 2 -2.8913 22.5355 0 -6.69
782 1 -2.16847 23.7874 0 -6.69
783 2 -0.722825 23.7874 0 -6.69
784 1 -17.3478 25.0394 0 -6.69
785 2 -15.9022 25.0394 0 -6.69
786 1 -15.1793 26.2914 0 -6.69
787 2 -13.7337 26.2914 0 -6.69
788 1 -13.0109 25.0394 0 -6.69
789 2 -11.5652 25.0394 0 -6.69
790 1 -10.8424 26.2914 0 -6.69
791 2 -9.39672 26.2914 0 -6.69
792 1 -8.6739 25.0394 0 -6.69
793 2 -7.22825 25.0394 0 -6.69
794 1 -6.50543 26.2914 0 -6.69
795 2 -5.05978 26.2914 0 -6.69
796 1 -4.33695 25.0394 0 -6.69
797 2 -2.8913 25.0394 0 -6.69
798 1 -2.16847 26.2914 0 -6.69
799 2 -0.722825 26.2914 0 -6.69
800 1 -17.3478 27.5433 0 -6.69
801 2 -15.9022 27.5433 0 -6.69
802 1 -15.1793 28.7953 0 -6.69
803 2 -13.7337 28.7953 0 -6.69
804 1 -13.0109 27.5433 0 -6.69
805 2 -11.5652 27.5433 0 -6.69
806 1 -10.8424 28.7953 0 -6.69
807 2 -9.39672 28.7953 0 -6.69
808 1 -8.6739 27.5433 0 -6.69
809 2 -7.22825 27.5433 0 -6.69
810 1 -6.50543 28.7953 0 -6.69
811 2 -5.05978 28.7953 0 -6.69
812 1 -4.33695 27.5433 0 -6.69
813 2 -2.8913 27.5433 0 -6.69
814 1 -2.16847 28.7953 0 -6.69
815 2 -0.722825 28.7953 0 -6.69
816 1 -17.3478 30.0473 0 -6.69
817 2 -15.9022 30.0473 0 -6.69
818 1 -15.1793 31.2992 0 -6.69
819 2 -13.7337 31.2992 0 -6.69
820 1 -13.0109 30.0473 0 -6.69
821 2 -11.5652 30.0473 0 -6.69
822 1 -10.8424 31.2992 0 -6.69
823 2 -9.39672 31.2992 0 -6.69
824 1 -8.6739 30.0473 0 -6.69
825 2 -7.22825 30.0473 0 -6.69
826 1 -6.50543 31.2992 0 -6.69
827 2 -5.05978 31.2992 0 -6.69
828 1 -4.33695 30.0473 0 -6.69
829 2 -2.8913 30.0473 0 -6.69
830 1 -2.16847 31.2992 0 -6.69
831 2 -0.722825 31.2992 0 -6.69
832 1 0 -32.5512 0 -6.69
833 2 1.44565 -32.5512 0 -6.69
834 1 2.16847 -31.2992 0 -6.69
848 1 0 -30.0473 0 -6.69
849 2 1.44565 -30.0473 0 -6.69
835 2 3.61413 -31.2992 0 -6.69
836 1 4.33695 -32.5512 0 -6.69
837 2 5.7826 -32.5512 0 -6.69
852 1 4.33695 -30.0473 0 -6.69
853 2 5.7826 -30.0473 0 -6.69
838 1 6.50543 -31.2992 0 -6.69
839 2 7.95108 -31.2992 0 -6.69
840 1 8.6739 -32.5512 0 -6.69
841 2 10.1195 -32.5512 0 -6.69
842 1 10.8424 -31.2992 0 -6.69
856 1 8.6739 -30.0473 0 -6.69
857 2 10.1195 -30.0473 0 -6.69
843 2 12.288 -31.2992 0 -6.69
844 1 13.0109 -32.5512 0 -6.69
845 2 14.4565 -32.5512 0 -6.69
860 1 13.0109 -30.0473 0 -6.69
861 2 14.4565 -30.0473 0 -6.69
846 1 15.1793 -31.2992 0 -6.69
847 2 16.625 -31.2992 0 -6.69
850 1 2.16847 -28.7953 0 -6.69
864 1 0 -27.5433 0 -6.69
865 2 1.44565 -27.5433 0 -6.69
851 2 3.61413 -28.7953 0 -6.69
868 1 4.33695 -27.5433 0 -6.69
869 2 5.7826 -27.5433 0 -6.69
854 1 6.50543 -28.7953 0 -6.69
855 2 7.95108 -28.7953 0 -6.69
858 1 10.8424 -28.7953 0 -6.69
872 1 8.6739 -27.5433 0 -6.69
873 2 10.1195 -27.5433 0 -6.69
859 2 12.288 -28.7953 0 -6.69
876 1 13.0109 -27.5433 0 -6.69
877 2 14.4565 -27.5433 0 -6.69
862 1 15.1793 -28.7953 0 -6.69
863 2 16.625 -28.7953 0 -6.69
866 1 2.16847 -26.2914 0 -6.69
880 1 0 -25.0394 0 -6.69
881 2 1.44565 -25.0394 0 -6.69
867 2 3.61413 -26.2914 0 -6.69
884 1 4.33695 -25.0394 0 -6.69
885 2 5.7826 -25.0394 0 -6.69
870 1 6.50543 -26.2914 0 -6.69
871 2 7.95108 -26.2914 0 -6.69
874 1 10.8424 -26.2914 0 -6.69
888 1 8.6739 -25.0394 0 -6.69
889 2 10.1195 -25.0394 0 -6.69
875 2 12.288 -26.2914 0 -6.69
892 1 13.0109 -25.0394 0 -6.69
893 2 14.4565 -25.0394 0 -6.69
878 1 15.1793 -26.2914 0 -6.69
879 2 16.625 -26.2914 0 -6.69
882 1 2.16847 -23.7874 0 -6.69
896 1 0 -22.5355 0 -6.69
897 2 1.44565 -22.5355 0 -6.69
883 2 3.61413 -23.7874 0 -6.69
900 1 4.33695 -22.5355 0 -6.69
901 2 5.7826 -22.5355 0 -6.69
886 1 6.50543 -23.7874 0 -6.69
887 2 7.95108 -23.7874 0 -6.69
890 1 10.8424 -23.7874 0 -6.69
904 1 8.6739 -22.5355 0 -6.69
905 2 10.1195 -22.5355 0 -6.69
891 2 12.288 -23.7874 0 -6.69
908 1 13.0109 -22.5355 0 -6.69
909 2 14.4565 -22.5355 0 -6.69
894 1 15.1793 -23.7874 0 -6.69
895 2 16.625 -23.7874 0 -6.69
898 1 2.16847 -21.2835 0 -6.69
912 1 0 -20.0315 0 -6.69
913 2 1.44565 -20.0315 0 -6.69
899 2 3.61413 -21.2835 0 -6.69
916 1 4.33695 -20.0315 0 -6.69
917 2 5.7826 -20.0315 0 -6.69
902 1 6.50543 -21.2835 0 -6.69
903 2 7.95108 -21.2835 0 -6.69
906 1 10.8424 -21.2835 0 -6.69
920 1 8.6739 -20.0315 0 -6.69
921 2 10.1195 -20.0315 0 -6.69
907 2 12.288 -21.2835 0 -6.69
924 1 13.0109 -20.0315 0 -6.69
925 2 14.4565 -20.0315 0 -6.69
910 1 15.1793 -21.2835 0 -6.69
911 2 16.625 -21.2835 0 -6.69
914 1 2.16847 -18.7795 0 -6.69
928 1 0 -17.5276 0 -6.69
929 2 1.44565 -17.5276 0 -6.69
915 2 3.61413 -18.7795 0 -6.69
930 1 4.33695 -17.5276 0 -6.69
931 2 5.7826 -17.5276 0 -6.69
918 1 6.50543 -18.7795 0 -6.69
919 2 7.95108 -18.7795 0 -6.69
922 1 10.8424 -18.7795 0 -6.69
932 1 8.6739 -17.5276 0 -6.69
933 2 10.1195 -17.5276 0 -6.69
923 2 12.288 -18.7795 0 -6.69
934 1 13.0109 -17.5276 0 -6.69
935 2 14.4565 -17.5276 0 -6.69
926 1 15.1793 -18.7795 0 -6.69
927 2 16.625 -18.7795 0 -6.69
936 1 2.16847 -16.2756 0 -6.69
944 1 0 -15.0236 0 -6.69
945 2 1.44565 -15.0236 0 -6.69
946 1 2.16847 -13.7717 0 -6.69
937 2 3.61413 -16.2756 0 -6.69
947 2 3.61413 -13.7717 0 -6.69
948 1 4.33695 -15.0236 0 -6.69
949 2 5.7826 -15.0236 0 -6.69
938 1 6.50543 -16.2756 0 -6.69
939 2 7.95108 -16.2756 0 -6.69
950 1 6.50543 -13.7717 0 -6.69
951 2 7.95108 -13.7717 0 -6.69
940 1 10.8424 -16.2756 0 -6.69
952 1 8.6739 -15.0236 0 -6.69
953 2 10.1195 -15.0236 0 -6.69
954 1 10.8424 -13.7717 0 -6.69
941 2 12.288 -16.2756 0 -6.69
955 2 12.288 -13.7717 0 -6.69
956 1 13.0109 -15.0236 0 -6.69
957 2 14.4565 -15.0236 0 -6.69
942 1 15.1793 -16.2756 0 -6.69
943 2 16.625 -16.2756 0 -6.69
958 1 15.1793 -13.7717 0 -6.69