ITEM: TIMESTEP
0
ITEM: NUMBER OF ATOMS
2000
ITEM: BOX BOUNDS pp pp ff 
0 10.0
0 10.0
0 15.0
ITEM: ATOMS id type x y z vx vy vz energy cx cy cz
2 1 0.0 0.0 0.0 0.0 0.0 0.0 0.0 1 1 1
3 1 0.5 0.5 0.5 0.0 0.0 0.0 0.0 1 1 1
4 1 0.0 0.0 1.0 0.0 0.0 0.0 0.0 1 1 1
5 1 0.5 0.5 1.5 0.0 0.0 0.0 0.0 1 1 1
6 1 0.0 0.0 2.0 0.0 0.0 0.0 0.0 1 1 1
7 1 0.5 0.5 2.5 0.0 0.0 0.0 0.0 1 1 1
8 1 0.0 0.0 3.0 0.0 0.0 0.0 0.0 1 1 2
9 1 0.5 0.5 3.5 0.0 0.0 0.0 0.0 1 1 2
10 1 0.0 0.0 4.0 0.0 0.0 0.0 0.0 1 1 2
11 1 0.5 0.5 4.5 0.0 0.0 0.0 0.0 1 1 2
12 1 0.0 0.0 5.0 0.0 0.0 0.0 0.0 1 1 2
13 1 0.5 0.5 5.5 0.0 0.0 0.0 0.0 1 1 2
14 1 0.0 0.0 6.0 0.0 0.0 0.0 0.0 1 1 3
15 1 0.5 0.5 6.5 0.0 0.0 0.0 0.0 1 1 3
16 1 0.0 0.0 7.0 0.0 0.0 0.0 0.0 1 1 3
17 1 0.5 0.5 7.5 0.0 0.0 0.0 0.0 1 1 3
18 1 0.0 0.0 8.0 0.0 0.0 0.0 0.0 1 1 3
19 1 0.5 0.5 8.5 0.0 0.0 0.0 0.0 1 1 3
20 1 0.0 0.0 9.0 0.0 0.0 0.0 0.0 1 1 4
21 1 0.5 0.5 9.5 0.0 0.0 0.0 0.0 1 1 4
22 1 0.0 1.0 0.0 0.0 0.0 0.0 0.0 1 1 1
23 1 0.5 1.5 0.5 0.0 0.0 0.0 0.0 1 1 1
24 1 0.0 1.0 1.0 0.0 0.0 0.0 0.0 1 1 1
25 1 0.5 1.5 1.5 0.0 0.0 0.0 0.0 1 1 1
26 1 0.0 1.0 2.0 0.0 0.0 0.0 0.0 1 1 1
27 1 0.5 1.5 2.5 0.0 0.0 0.0 0.0 1 1 1
28 1 0.0 1.0 3.0 0.0 0.0 0.0 0.0 1 1 2
29 1 0.5 1.5 3.5 0.0 0.0 0.0 0.0 1 1 2
30 1 0.0 1.0 4.0 0.0 0.0 0.0 0.0 1 1 2
31 1 0.5 1.5 4.5 0.0 0.0 0.0 0.0 1 1 2
32 1 0.0 1.0 5.0 0.0 0.0 0.0 0.0 1 1 2
33 1 0.5 1.5 5.5 0.0 0.0 0.0 0.0 1 1 2
34 1 0.0 1.0 6.0 0.0 0.0 0.0 0.0 1 1 3
35 1 0.5 1.5 6.5 0.0 0.0 0.0 0.0 1 1 3
36 1 0.0 1.0 7.0 0.0 0.0 0.0 0.0 1 1 3
37 1 0.5 1.5 7.5 0.0 0.0 0.0 0.0 1 1 3
38 1 0.0 1.0 8.0 0.0 0.0 0.0 0.0 1 1 3
39 1 0.5 1.5 8.5 0.0 0.0 0.0 0.0 1 1 3
40 1 0.0 1.0 9.0 0.0 0.0 0.0 0.0 1 1 4
41 1 0.5 1.5 9.5 0.0 0.0 0.0 0.0 1 1 4
42 1 0.0 2.0 0.0 0.0 0.0 0.0 0.0 1 1 1
43 1 0.5 2.5 0.5 0.0 0.0 0.0 0.0 1 1 1
44 1 0.0 2.0 1.0 0.0 0.0 0.0 0.0 1 1 1
45 1 0.5 2.5 1.5 0.0 0.0 0.0 0.0 1 1 1
46 1 0.0 2.0 2.0 0.0 0.0 0.0 0.0 1 1 1
47 1 0.5 2.5 2.5 0.0 0.0 0.0 0.0 1 1 1
48 1 0.0 2.0 3.0 0.0 0.0 0.0 0.0 1 1 2
49 1 0.5 2.5 3.5 0.0 0.0 0.0 0.0 1 1 2
50 1 0.0 2.0 4.0 0.0 0.0 0.0 0.0 1 1 2
51 1 0.5 2.5 4.5 0.0 0.0 0.0 0.0 1 1 2
52 1 0.0 2.0 5.0 0.0 0.0 0.0 0.0 1 1 2
53 1 0.5 2.5 5.5 0.0 0.0 0.0 0.0 1 1 2
54 1 0.0 2.0 6.0 0.0 0.0 0.0 0.0 1 1 3
55 1 0.5 2.5 6.5 0.0 0.0 0.0 0.0 1 1 3
56 1 0.0 2.0 7.0 0.0 0.0 0.0 0.0 1 1 3
57 1 0.5 2.5 7.5 0.0 0.0 0.0 0.0 1 1 3
58 1 0.0 2.0 8.0 0.0 0.0 0.0 0.0 1 1 3
59 1 0.5 2.5 8.5 0.0 0.0 0.0 0.0 1 1 3
60 1 0.0 2.0 9.0 0.0 0.0 0.0 0.0 1 1 4
61 1 0.5 2.5 9.5 0.0 0.0 0.0 0.0 1 1 4
62 1 0.0 3.0 0.0 0.0 0.0 0.0 0.0 1 1 1
63 1 0.5 3.5 0.5 0.0 0.0 0.0 0.0 1 2 1
64 1 0.0 3.0 1.0 0.0 0.0 0.0 0.0 1 1 1
65 1 0.5 3.5 1.5 0.0 0.0 0.0 0.0 1 2 1
66 1 0.0 3.0 2.0 0.0 0.0 0.0 0.0 1 1 1
67 1 0.5 3.5 2.5 0.0 0.0 0.0 0.0 1 2 1
68 1 0.0 3.0 3.0 0.0 0.0 0.0 0.0 1 1 2
69 1 0.5 3.5 3.5 0.0 0.0 0.0 0.0 1 2 2
70 1 0.0 3.0 4.0 0.0 0.0 0.0 0.0 1 1 2
71 1 0.5 3.5 4.5 0.0 0.0 0.0 0.0 1 2 2
72 1 0.0 3.0 5.0 0.0 0.0 0.0 0.0 1 1 2
73 1 0.5 3.5 5.5 0.0 0.0 0.0 0.0 1 2 2
74 1 0.0 3.0 6.0 0.0 0.0 0.0 0.0 1 1 3
75 1 0.5 3.5 6.5 0.0 0.0 0.0 0.0 1 2 3
76 1 0.0 3.0 7.0 0.0 0.0 0.0 0.0 1 1 3
77 1 0.5 3.5 7.5 0.0 0.0 0.0 0.0 1 2 3
78 1 0.0 3.0 8.0 0.0 0.0 0.0 0.0 1 1 3
79 1 0.5 3.5 8.5 0.0 0.0 0.0 0.0 1 2 3
80 1 0.0 3.0 9.0 0.0 0.0 0.0 0.0 1 1 4
81 1 0.5 3.5 9.5 0.0 0.0 0.0 0.0 1 2 4
82 1 0.0 4.0 0.0 0.0 0.0 0.0 0.0 1 2 1
83 1 0.5 4.5 0.5 0.0 0.0 0.0 0.0 1 2 1
84 1 0.0 4.0 1.0 0.0 0.0 0.0 0.0 1 2 1
85 1 0.5 4.5 1.5 0.0 0.0 0.0 0.0 1 2 1
86 1 0.0 4.0 2.0 0.0 0.0 0.0 0.0 1 2 1
87 1 0.5 4.5 2.5 0.0 0.0 0.0 0.0 1 2 1
88 1 0.0 4.0 3.0 0.0 0.0 0.0 0.0 1 2 2
89 1 0.5 4.5 3.5 0.0 0.0 0.0 0.0 1 2 2
90 1 0.0 4.0 4.0 0.0 0.0 0.0 0.0 1 2 2
91 1 0.5 4.5 4.5 0.0 0.0 0.0 0.0 1 2 2
92 1 0.0 4.0 5.0 0.0 0.0 0.0 0.0 1 2 2
93 1 0.5 4.5 5.5 0.0 0.0 0.0 0.0 1 2 2
94 1 0.0 4.0 6.0 0.0 0.0 0.0 0.0 1 2 3
95 1 0.5 4.5 6.5 0.0 0.0 0.0 0.0 1 2 3
96 1 0.0 4.0 7.0 0.0 0.0 0.0 0.0 1 2 3
97 1 0.5 4.5 7.5 0.0 0.0 0.0 0.0 1 2 3
98 1 0.0 4.0 8.0 0.0 0.0 0.0 0.0 1 2 3
99 1 0.5 4.5 8.5 0.0 0.0 0.0 0.0 1 2 3
100 1 0.0 4.0 9.0 0.0 0.0 0.0 0.0 1 2 4
101 1 0.5 4.5 9.5 0.0 0.0 0.0 0.0 1 2 4
102 1 0.0 5.0 0.0 0.0 0.0 0.0 0.0 1 2 1
103 1 0.5 5.5 0.5 0.0 0.0 0.0 0.0 1 2 1
104 1 0.0 5.0 1.0 0.0 0.0 0.0 0.0 1 2 1
105 1 0.5 5.5 1.5 0.0 0.0 0.0 0.0 1 2 1
106 1 0.0 5.0 2.0 0.0 0.0 0.0 0.0 1 2 1
107 1 0.5 5.5 2.5 0.0 0.0 0.0 0.0 1 2 1
108 1 0.0 5.0 3.0 0.0 0.0 0.0 0.0 1 2 2
109 1 0.5 5.5 3.5 0.0 0.0 0.0 0.0 1 2 2
110 1 0.0 5.0 4.0 0.0 0.0 0.0 0.0 1 2 2
111 1 0.5 5.5 4.5 0.0 0.0 0.0 0.0 1 2 2
112 1 0.0 5.0 5.0 0.0 0.0 0.0 0.0 1 2 2
113 1 0.5 5.5 5.5 0.0 0.0 0.0 0.0 1 2 2
114 1 0.0 5.0 6.0 0.0 0.0 0.0 0.0 1 2 3
115 1 0.5 5.5 6.5 0.0 0.0 0.0 0.0 1 2 3
116 1 0.0 5.0 7.0 0.0 0.0 0.0 0.0 1 2 3
117 1 0.5 5.5 7.5 0.0 0.0 0.0 0.0 1 2 3
118 1 0.0 5.0 8.0 0.0 0.0 0.0 0.0 1 2 3
119 1 0.5 5.5 8.5 0.0 0.0 0.0 0.0 1 2 3
120 1 0.0 5.0 9.0 0.0 0.0 0.0 0.0 1 2 4
121 1 0.5 5.5 9.5 0.0 0.0 0.0 0.0 1 2 4
122 1 0.0 6.0 0.0 0.0 0.0 0.0 0.0 1 2 1
123 1 0.5 6.5 0.5 0.0 0.0 0.0 0.0 1 2 1
124 1 0.0 6.0 1.0 0.0 0.0 0.0 0.0 1 2 1
125 1 0.5 6.5 1.5 0.0 0.0 0.0 0.0 1 2 1
126 1 0.0 6.0 2.0 0.0 0.0 0.0 0.0 1 2 1
127 1 0.5 6.5 2.5 0.0 0.0 0.0 0.0 1 2 1
128 1 0.0 6.0 3.0 0.0 0.0 0.0 0.0 1 2 2
129 1 0.5 6.5 3.5 0.0 0.0 0.0 0.0 1 2 2
130 1 0.0 6.0 4.0 0.0 0.0 0.0 0.0 1 2 2
131 1 0.5 6.5 4.5 0.0 0.0 0.0 0.0 1 2 2
132 1 0.0 6.0 5.0 0.0 0.0 0.0 0.0 1 2 2
133 1 0.5 6.5 5.5 0.0 0.0 0.0 0.0 1 2 2
134 1 0.0 6.0 6.0 0.0 0.0 0.0 0.0 1 2 3
135 1 0.5 6.5 6.5 0.0 0.0 0.0 0.0 1 2 3
136 1 0.0 6.0 7.0 0.0 0.0 0.0 0.0 1 2 3
137 1 0.5 6.5 7.5 0.0 0.0 0.0 0.0 1 2 3
138 1 0.0 6.0 8.0 0.0 0.0 0.0 0.0 1 2 3
139 1 0.5 6.5 8.5 0.0 0.0 0.0 0.0 1 2 3
140 1 0.0 6.0 9.0 0.0 0.0 0.0 0.0 1 2 4
141 1 0.5 6.5 9.5 0.0 0.0 0.0 0.0 1 2 4
142 1 0.0 7.0 0.0 0.0 0.0 0.0 0.0 1 3 1
143 1 0.5 7.5 0.5 0.0 0.0 0.0 0.0 1 3 1
144 1 0.0 7.0 1.0 0.0 0.0 0.0 0.0 1 3 1
145 1 0.5 7.5 1.5 0.0 0.0 0.0 0.0 1 3 1
146 1 0.0 7.0 2.0 0.0 0.0 0.0 0.0 1 3 1
147 1 0.5 7.5 2.5 0.0 0.0 0.0 0.0 1 3 1
148 1 0.0 7.0 3.0 0.0 0.0 0.0 0.0 1 3 2
149 1 0.5 7.5 3.5 0.0 0.0 0.0 0.0 1 3 2
150 1 0.0 7.0 4.0 0.0 0.0 0.0 0.0 1 3 2
151 1 0.5 7.5 4.5 0.0 0.0 0.0 0.0 1 3 2
152 1 0.0 7.0 5.0 0.0 0.0 0.0 0.0 1 3 2
153 1 0.5 7.5 5.5 0.0 0.0 0.0 0.0 1 3 2
154 1 0.0 7.0 6.0 0.0 0.0 0.0 0.0 1 3 3
155 1 0.5 7.5 6.5 0.0 0.0 0.0 0.0 1 3 3
156 1 0.0 7.0 7.0 0.0 0.0 0.0 0.0 1 3 3
157 1 0.5 7.5 7.5 0.0 0.0 0.0 0.0 1 3 3
158 1 0.0 7.0 8.0 0.0 0.0 0.0 0.0 1 3 3
159 1 0.5 7.5 8.5 0.0 0.0 0.0 0.0 1 3 3
160 1 0.0 7.0 9.0 0.0 0.0 0.0 0.0 1 3 4
161 1 0.5 7.5 9.5 0.0 0.0 0.0 0.0 1 3 4
162 1 0.0 8.0 0.0 0.0 0.0 0.0 0.0 1 3 1
163 1 0.5 8.5 0.5 0.0 0.0 0.0 0.0 1 3 1
164 1 0.0 8.0 1.0 0.0 0.0 0.0 0.0 1 3 1
165 1 0.5 8.5 1.5 0.0 0.0 0.0 0.0 1 3 1
166 1 0.0 8.0 2.0 0.0 0.0 0.0 0.0 1 3 1
167 1 0.5 8.5 2.5 0.0 0.0 0.0 0.0 1 3 1
168 1 0.0 8.0 3.0 0.0 0.0 0.0 0.0 1 3 2
169 1 0.5 8.5 3.5 0.0 0.0 0.0 0.0 1 3 2
170 1 0.0 8.0 4.0 0.0 0.0 0.0 0.0 1 3 2
171 1 0.5 8.5 4.5 0.0 0.0 0.0 0.0 1 3 2
172 1 0.0 8.0 5.0 0.0 0.0 0.0 0.0 1 3 2
173 1 0.5 8.5 5.5 0.0 0.0 0.0 0.0 1 3 2
174 1 0.0 8.0 6.0 0.0 0.0 0.0 0.0 1 3 3
175 1 0.5 8.5 6.5 0.0 0.0 0.0 0.0 1 3 3
176 1 0.0 8.0 7.0 0.0 0.0 0.0 0.0 1 3 3
177 1 0.5 8.5 7.5 0.0 0.0 0.0 0.0 1 3 3
178 1 0.0 8.0 8.0 0.0 0.0 0.0 0.0 1 3 3
179 1 0.5 8.5 8.5 0.0 0.0 0.0 0.0 1 3 3
180 1 0.0 8.0 9.0 0.0 0.0 0.0 0.0 1 3 4
181 1 0.5 8.5 9.5 0.0 0.0 0.0 0.0 1 3 4
182 1 0.0 9.0 0.0 0.0 0.0 0.0 0.0 1 3 1
183 1 0.5 9.5 0.5 0.0 0.0 0.0 0.0 1 3 1
184 1 0.0 9.0 1.0 0.0 0.0 0.0 0.0 1 3 1
185 1 0.5 9.5 1.5 0.0 0.0 0.0 0.0 1 3 1
186 1 0.0 9.0 2.0 0.0 0.0 0.0 0.0 1 3 1
187 1 0.5 9.5 2.5 0.0 0.0 0.0 0.0 1 3 1
188 1 0.0 9.0 3.0 0.0 0.0 0.0 0.0 1 3 2
189 1 0.5 9.5 3.5 0.0 0.0 0.0 0.0 1 3 2
190 1 0.0 9.0 4.0 0.0 0.0 0.0 0.0 1 3 2
191 1 0.5 9.5 4.5 0.0 0.0 0.0 0.0 1 3 2
192 1 0.0 9.0 5.0 0.0 0.0 0.0 0.0 1 3 2
193 1 0.5 9.5 5.5 0.0 0.0 0.0 0.0 1 3 2
194 1 0.0 9.0 6.0 0.0 0.0 0.0 0.0 1 3 3
195 1 0.5 9.5 6.5 0.0 0.0 0.0 0.0 1 3 3
196 1 0.0 9.0 7.0 0.0 0.0 0.0 0.0 1 3 3
197 1 0.5 9.5 7.5 0.0 0.0 0.0 0.0 1 3 3
198 1 0.0 9.0 8.0 0.0 0.0 0.0 0.0 1 3 3
199 1 0.5 9.5 8.5 0.0 0.0 0.0 0.0 1 3 3
200 1 0.0 9.0 9.0 0.0 0.0 0.0 0.0 1 3 4
201 1 0.5 9.5 9.5 0.0 0.0 0.0 0.0 1 3 4
202 1 1.0 0.0 0.0 0.0 0.0 0.0 0.0 1 1 1
203 1 1.5 0.5 0.5 0.0 0.0 0.0 0.0 1 1 1
204 1 1.0 0.0 1.0 0.0 0.0 0.0 0.0 1 1 1
205 1 1.5 0.5 1.5 0.0 0.0 0.0 0.0 1 1 1
206 1 1.0 0.0 2.0 0.0 0.0 0.0 0.0 1 1 1
207 1 1.5 0.5 2.5 0.0 0.0 0.0 0.0 1 1 1
208 1 1.0 0.0 3.0 0.0 0.0 0.0 0.0 1 1 2
209 1 1.5 0.5 3.5 0.0 0.0 0.0 0.0 1 1 2
210 1 1.0 0.0 4.0 0.0 0.0 0.0 0.0 1 1 2
211 1 1.5 0.5 4.5 0.0 0.0 0.0 0.0 1 1 2
212 1 1.0 0.0 5.0 0.0 0.0 0.0 0.0 1 1 2
213 1 1.5 0.5 5.5 0.0 0.0 0.0 0.0 1 1 2
214 1 1.0 0.0 6.0 0.0 0.0 0.0 0.0 1 1 3
215 1 1.5 0.5 6.5 0.0 0.0 0.0 0.0 1 1 3
216 1 1.0 0.0 7.0 0.0 0.0 0.0 0.0 1 1 3
217 1 1.5 0.5 7.5 0.0 0.0 0.0 0.0 1 1 3
218 1 1.0 0.0 8.0 0.0 0.0 0.0 0.0 1 1 3
219 1 1.5 0.5 8.5 0.0 0.0 0.0 0.0 1 1 3
220 1 1.0 0.0 9.0 0.0 0.0 0.0 0.0 1 1 4
221 1 1.5 0.5 9.5 0.0 0.0 0.0 0.0 1 1 4
222 1 1.0 1.0 0.0 0.0 0.0 0.0 0.0 1 1 1
223 1 1.5 1.5 0.5 0.0 0.0 0.0 0.0 1 1 1
224 1 1.0 1.0 1.0 0.0 0.0 0.0 0.0 1 1 1
225 1 1.5 1.5 1.5 0.0 0.0 0.0 0.0 1 1 1
226 1 1.0 1.0 2.0 0.0 0.0 0.0 0.0 1 1 1
227 1 1.5 1.5 2.5 0.0 0.0 0.0 0.0 1 1 1
228 1 1.0 1.0 3.0 0.0 0.0 0.0 0.0 1 1 2
229 1 1.5 1.5 3.5 0.0 0.0 0.0 0.0 1 1 2
230 1 1.0 1.0 4.0 0.0 0.0 0.0 0.0 1 1 2
231 1 1.5 1.5 4.5 0.0 0.0 0.0 0.0 1 1 2
232 1 1.0 1.0 5.0 0.0 0.0 0.0 0.0 1 1 2
233 1 1.5 1.5 5.5 0.0 0.0 0.0 0.0 1 1 2
234 1 1.0 1.0 6.0 0.0 0.0 0.0 0.0 1 1 3
235 1 1.5 1.5 6.5 0.0 0.0 0.0 0.0 1 1 3
236 1 1.0 1.0 7.0 0.0 0.0 0.0 0.0 1 1 3
237 1 1.5 1.5 7.5 0.0 0.0 0.0 0.0 1 1 3
238 1 1.0 1.0 8.0 0.0 0.0 0.0 0.0 1 1 3
239 1 1.5 1.5 8.5 0.0 0.0 0.0 0.0 1 1 3
240 1 1.0 1.0 9.0 0.0 0.0 0.0 0.0 1 1 4
241 1 1.5 1.5 9.5 0.0 0.0 0.0 0.0 1 1 4
242 1 1.0 2.0 0.0 0.0 0.0 0.0 0.0 1 1 1
243 1 1.5 2.5 0.5 0.0 0.0 0.0 0.0 1 1 1
244 1 1.0 2.0 1.0 0.0 0.0 0.0 0.0 1 1 1
245 1 1.5 2.5 1.5 0.0 0.0 0.0 0.0 1 1 1
246 1 1.0 2.0 2.0 0.0 0.0 0.0 0.0 1 1 1
247 1 1.5 2.5 2.5 0.0 0.0 0.0 0.0 1 1 1
248 1 1.0 2.0 3.0 0.0 0.0 0.0 0.0 1 1 2
249 1 1.5 2.5 3.5 0.0 0.0 0.0 0.0 1 1 2
250 1 1.0 2.0 4.0 0.0 0.0 0.0 0.0 1 1 2
251 1 1.5 2.5 4.5 0.0 0.0 0.0 0.0 1 1 2
252 1 1.0 2.0 5.0 0.0 0.0 0.0 0.0 1 1 2
253 1 1.5 2.5 5.5 0.0 0.0 0.0 0.0 1 1 2
254 1 1.0 2.0 6.0 0.0 0.0 0.0 0.0 1 1 3
255 1 1.5 2.5 6.5 0.0 0.0 0.0 0.0 1 1 3
256 1 1.0 2.0 7.0 0.0 0.0 0.0 0.0 1 1 3
257 1 1.5 2.5 7.5 0.0 0.0 0.0 0.0 1 1 3
258 1 1.0 2.0 8.0 0.0 0.0 0.0 0.0 1 1 3
259 1 1.5 2.5 8.5 0.0 0.0 0.0 0.0 1 1 3
260 1 1.0 2.0 9.0 0.0 0.0 0.0 0.0 1 1 4
261 1 1.5 2.5 9.5 0.0 0.0 0.0 0.0 1 1 4
262 1 1.0 3.0 0.0 0.0 0.0 0.0 0.0 1 1 1
263 1 1.5 3.5 0.5 0.0 0.0 0.0 0.0 1 2 1
264 1 1.0 3.0 1.0 0.0 0.0 0.0 0.0 1 1 1
265 1 1.5 3.5 1.5 0.0 0.0 0.0 0.0 1 2 1
266 1 1.0 3.0 2.0 0.0 0.0 0.0 0.0 1 1 1
267 1 1.5 3.5 2.5 0.0 0.0 0.0 0.0 1 2 1
268 1 1.0 3.0 3.0 0.0 0.0 0.0 0.0 1 1 2
269 1 1.5 3.5 3.5 0.0 0.0 0.0 0.0 1 2 2
270 1 1.0 3.0 4.0 0.0 0.0 0.0 0.0 1 1 2
271 1 1.5 3.5 4.5 0.0 0.0 0.0 0.0 1 2 2
272 1 1.0 3.0 5.0 0.0 0.0 0.0 0.0 1 1 2
273 1 1.5 3.5 5.5 0.0 0.0 0.0 0.0 1 2 2
274 1 1.0 3.0 6.0 0.0 0.0 0.0 0.0 1 1 3
275 1 1.5 3.5 6.5 0.0 0.0 0.0 0.0 1 2 3
276 1 1.0 3.0 7.0 0.0 0.0 0.0 0.0 1 1 3
277 1 1.5 3.5 7.5 0.0 0.0 0.0 0.0 1 2 3
278 1 1.0 3.0 8.0 0.0 0.0 0.0 0.0 1 1 3
279 1 1.5 3.5 8.5 0.0 0.0 0.0 0.0 1 2 3
280 1 1.0 3.0 9.0 0.0 0.0 0.0 0.0 1 1 4
281 1 1.5 3.5 9.5 0.0 0.0 0.0 0.0 1 2 4
282 1 1.0 4.0 0.0 0.0 0.0 0.0 0.0 1 2 1
283 1 1.5 4.5 0.5 0.0 0.0 0.0 0.0 1 2 1
284 1 1.0 4.0 1.0 0.0 0.0 0.0 0.0 1 2 1
285 1 1.5 4.5 1.5 0.0 0.0 0.0 0.0 1 2 1
286 1 1.0 4.0 2.0 0.0 0.0 0.0 0.0 1 2 1
287 1 1.5 4.5 2.5 0.0 0.0 0.0 0.0 1 2 1
288 1 1.0 4.0 3.0 0.0 0.0 0.0 0.0 1 2 2
289 1 1.5 4.5 3.5 0.0 0.0 0.0 0.0 1 2 2
290 1 1.0 4.0 4.0 0.0 0.0 0.0 0.0 1 2 2
291 1 1.5 4.5 4.5 0.0 0.0 0.0 0.0 1 2 2
292 1 1.0 4.0 5.0 0.0 0.0 0.0 0.0 1 2 2
293 1 1.5 4.5 5.5 0.0 0.0 0.0 0.0 1 2 2
294 1 1.0 4.0 6.0 0.0 0.0 0.0 0.0 1 2 3
295 1 1.5 4.5 6.5 0.0 0.0 0.0 0.0 1 2 3
296 1 1.0 4.0 7.0 0.0 0.0 0.0 0.0 1 2 3
297 1 1.5 4.5 7.5 0.0 0.0 0.0 0.0 1 2 3
298 1 1.0 4.0 8.0 0.0 0.0 0.0 0.0 1 2 3
299 1 1.5 4.5 8.5 0.0 0.0 0.0 0.0 1 2 3
300 1 1.0 4.0 9.0 0.0 0.0 0.0 0.0 1 2 4
301 1 1.5 4.5 9.5 0.0 0.0 0.0 0.0 1 2 4
302 1 1.0 5.0 0.0 0.0 0.0 0.0 0.0 1 2 1
303 1 1.5 5.5 0.5 0.0 0.0 0.0 0.0 1 2 1
304 1 1.0 5.0 1.0 0.0 0.0 0.0 0.0 1 2 1
305 1 1.5 5.5 1.5 0.0 0.0 0.0 0.0 1 2 1
306 1 1.0 5.0 2.0 0.0 0.0 0.0 0.0 1 2 1
307 1 1.5 5.5 2.5 0.0 0.0 0.0 0.0 1 2 1
308 1 1.0 5.0 3.0 0.0 0.0 0.0 0.0 1 2 2
309 1 1.5 5.5 3.5 0.0 0.0 0.0 0.0 1 2 2
310 1 1.0 5.0 4.0 0.0 0.0 0.0 0.0 1 2 2
311 1 1.5 5.5 4.5 0.0 0.0 0.0 0.0 1 2 2
312 1 1.0 5.0 5.0 0.0 0.0 0.0 0.0 1 2 2
313 1 1.5 5.5 5.5 0.0 0.0 0.0 0.0 1 2 2
314 1 1.0 5.0 6.0 0.0 0.0 0.0 0.0 1 2 3
315 1 1.5 5.5 6.5 0.0 0.0 0.0 0.0 1 2 3
316 1 1.0 5.0 7.0 0.0 0.0 0.0 0.0 1 2 3
317 1 1.5 5.5 7.5 0.0 0.0 0.0 0.0 1 2 3
318 1 1.0 5.0 8.0 0.0 0.0 0.0 0.0 1 2 3
319 1 1.5 5.5 8.5 0.0 0.0 0.0 0.0 1 2 3
320 1 1.0 5.0 9.0 0.0 0.0 0.0 0.0 1 2 4
321 1 1.5 5.5 9.5 0.0 0.0 0.0 0.0 1 2 4
322 1 1.0 6.0 0.0 0.0 0.0 0.0 0.0 1 2 1
323 1 1.5 6.5 0.5 0.0 0.0 0.0 0.0 1 2 1
324 1 1.0 6.0 1.0 0.0 0.0 0.0 0.0 1 2 1
325 1 1.5 6.5 1.5 0.0 0.0 0.0 0.0 1 2 1
326 1 1.0 6.0 2.0 0.0 0.0 0.0 0.0 1 2 1
327 1 1.5 6.5 2.5 0.0 0.0 0.0 0.0 1 2 1
328 1 1.0 6.0 3.0 0.0 0.0 0.0 0.0 1 2 2
329 1 1.5 6.5 3.5 0.0 0.0 0.0 0.0 1 2 2
330 1 1.0 6.0 4.0 0.0 0.0 0.0 0.0 1 2 2
331 1 1.5 6.5 4.5 0.0 0.0 0.0 0.0 1 2 2
332 1 1.0 6.0 5.0 0.0 0.0 0.0 0.0 1 2 2
333 1 1.5 6.5 5.5 0.0 0.0 0.0 0.0 1 2 2
334 1 1.0 6.0 6.0 0.0 0.0 0.0 0.0 1 2 3
335 1 1.5 6.5 6.5 0.0 0.0 0.0 0.0 1 2 3
336 1 1.0 6.0 7.0 0.0 0.0 0.0 0.0 1 2 3
337 1 1.5 6.5 7.5 0.0 0.0 0.0 0.0 1 2 3
338 1 1.0 6.0 8.0 0.0 0.0 0.0 0.0 1 2 3
339 1 1.5 6.5 8.5 0.0 0.0 0.0 0.0 1 2 3
340 1 1.0 6.0 9.0 0.0 0.0 0.0 0.0 1 2 4
341 1 1.5 6.5 9.5 0.0 0.0 0.0 0.0 1 2 4
342 1 1.0 7.0 0.0 0.0 0.0 0.0 0.0 1 3 1
343 1 1.5 7.5 0.5 0.0 0.0 0.0 0.0 1 3 1
344 1 1.0 7.0 1.0 0.0 0.0 0.0 0.0 1 3 1
345 1 1.5 7.5 1.5 0.0 0.0 0.0 0.0 1 3 1
346 1 1.0 7.0 2.0 0.0 0.0 0.0 0.0 1 3 1
347 1 1.5 7.5 2.5 0.0 0.0 0.0 0.0 1 3 1
348 1 1.0 7.0 3.0 0.0 0.0 0.0 0.0 1 3 2
349 1 1.5 7.5 3.5 0.0 0.0 0.0 0.0 1 3 2
350 1 1.0 7.0 4.0 0.0 0.0 0.0 0.0 1 3 2
351 1 1.5 7.5 4.5 0.0 0.0 0.0 0.0 1 3 2
352 1 1.0 7.0 5.0 0.0 0.0 0.0 0.0 1 3 2
353 1 1.5 7.5 5.5 0.0 0.0 0.0 0.0 1 3 2
354 1 1.0 7.0 6.0 0.0 0.0 0.0 0.0 1 3 3
355 1 1.5 7.5 6.5 0.0 0.0 0.0 0.0 1 3 3
356 1 1.0 7.0 7.0 0.0 0.0 0.0 0.0 1 3 3
357 1 1.5 7.5 7.5 0.0 0.0 0.0 0.0 1 3 3
358 1 1.0 7.0 8.0 0.0 0.0 0.0 0.0 1 3 3
359 1 1.5 7.5 8.5 0.0 0.0 0.0 0.0 1 3 3
360 1 1.0 7.0 9.0 0.0 0.0 0.0 0.0 1 3 4
361 1 1.5 7.5 9.5 0.0 0.0 0.0 0.0 1 3 4
362 1 1.0 8.0 0.0 0.0 0.0 0.0 0.0 1 3 1
363 1 1.5 8.5 0.5 0.0 0.0 0.0 0.0 1 3 1
364 1 1.0 8.0 1.0 0.0 0.0 0.0 0.0 1 3 1
365 1 1.5 8.5 1.5 0.0 0.0 0.0 0.0 1 3 1
366 1 1.0 8.0 2.0 0.0 0.0 0.0 0.0 1 3 1
367 1 1.5 8.5 2.5 0.0 0.0 0.0 0.0 1 3 1
368 1 1.0 8.0 3.0 0.0 0.0 0.0 0.0 1 3 2
369 1 1.5 8.5 3.5 0.0 0.0 0.0 0.0 1 3 2
370 1 1.0 8.0 4.0 0.0 0.0 0.0 0.0 1 3 2
371 1 1.5 8.5 4.5 0.0 0.0 0.0 0.0 1 3 2
372 1 1.0 8.0 5.0 0.0 0.0 0.0 0.0 1 3 2
373 1 1.5 8.5 5.5 0.0 0.0 0.0 0.0 1 3 2
374 1 1.0 8.0 6.0 0.0 0.0 0.0 0.0 1 3 3
375 1 1.5 8.5 6.5 0.0 0.0 0.0 0.0 1 3 3
376 1 1.0 8.0 7.0 0.0 0.0 0.0 0.0 1 3 3
377 1 1.5 8.5 7.5 0.0 0.0 0.0 0.0 1 3 3
378 1 1.0 8.0 8.0 0.0 0.0 0.0 0.0 1 3 3
379 1 1.5 8.5 8.5 0.0 0.0 0.0 0.0 1 3 3
380 1 1.0 8.0 9.0 0.0 0.0 0.0 0.0 1 3 4
381 1 1.5 8.5 9.5 0.0 0.0 0.0 0.0 1 3 4
382 1 1.0 9.0 0.0 0.0 0.0 0.0 0.0 1 3 1
383 1 1.5 9.5 0.5 0.0 0.0 0.0 0.0 1 3 1
384 1 1.0 9.0 1.0 0.0 0.0 0.0 0.0 1 3 1
385 1 1.5 9.5 1.5 0.0 0.0 0.0 0.0 1 3 1
386 1 1.0 9.0 2.0 0.0 0.0 0.0 0.0 1 3 1
387 1 1.5 9.5 2.5 0.0 0.0 0.0 0.0 1 3 1
388 1 1.0 9.0 3.0 0.0 0.0 0.0 0.0 1 3 2
389 1 1.5 9.5 3.5 0.0 0.0 0.0 0.0 1 3 2
390 1 1.0 9.0 4.0 0.0 0.0 0.0 0.0 1 3 2
391 1 1.5 9.5 4.5 0.0 0.0 0.0 0.0 1 3 2
392 1 1.0 9.0 5.0 0.0 0.0 0.0 0.0 1 3 2
393 1 1.5 9.5 5.5 0.0 0.0 0.0 0.0 1 3 2
394 1 1.0 9.0 6.0 0.0 0.0 0.0 0.0 1 3 3
395 1 1.5 9.5 6.5 0.0 0.0 0.0 0.0 1 3 3
396 1 1.0 9.0 7.0 0.0 0.0 0.0 0.0 1 3 3
397 1 1.5 9.5 7.5 0.0 0.0 0.0 0.0 1 3 3
398 1 1.0 9.0 8.0 0.0 0.0 0.0 0.0 1 3 3
399 1 1.5 9.5 8.5 0.0 0.0 0.0 0.0 1 3 3
400 1 1.0 9.0 9.0 0.0 0.0 0.0 0.0 1 3 4
401 1 1.5 9.5 9.5 0.0 0.0 0.0 0.0 1 3 4
402 1 2.0 0.0 0.0 0.0 0.0 0.0 0.0 1 1 1
403 1 2.5 0.5 0.5 0.0 0.0 0.0 0.0 1 1 1
404 1 2.0 0.0 1.0 0.0 0.0 0.0 0.0 1 1 1
405 1 2.5 0.5 1.5 0.0 0.0 0.0 0.0 1 1 1
406 1 2.0 0.0 2.0 0.0 0.0 0.0 0.0 1 1 1
407 1 2.5 0.5 2.5 0.0 0.0 0.0 0.0 1 1 1
408 1 2.0 0.0 3.0 0.0 0.0 0.0 0.0 1 1 2
409 1 2.5 0.5 3.5 0.0 0.0 0.0 0.0 1 1 2
410 1 2.0 0.0 4.0 0.0 0.0 0.0 0.0 1 1 2
411 1 2.5 0.5 4.5 0.0 0.0 0.0 0.0 1 1 2
412 1 2.0 0.0 5.0 0.0 0.0 0.0 0.0 1 1 2
413 1 2.5 0.5 5.5 0.0 0.0 0.0 0.0 1 1 2
414 1 2.0 0.0 6.0 0.0 0.0 0.0 0.0 1 1 3
415 1 2.5 0.5 6.5 0.0 0.0 0.0 0.0 1 1 3
416 1 2.0 0.0 7.0 0.0 0.0 0.0 0.0 1 1 3
417 1 2.5 0.5 7.5 0.0 0.0 0.0 0.0 1 1 3
418 1 2.0 0.0 8.0 0.0 0.0 0.0 0.0 1 1 3
419 1 2.5 0.5 8.5 0.0 0.0 0.0 0.0 1 1 3
420 1 2.0 0.0 9.0 0.0 0.0 0.0 0.0 1 1 4
421 1 2.5 0.5 9.5 0.0 0.0 0.0 0.0 1 1 4
422 1 2.0 1.0 0.0 0.0 0.0 0.0 0.0 1 1 1
423 1 2.5 1.5 0.5 0.0 0.0 0.0 0.0 1 1 1
424 1 2.0 1.0 1.0 0.0 0.0 0.0 0.0 1 1 1
425 1 2.5 1.5 1.5 0.0 0.0 0.0 0.0 1 1 1
426 1 2.0 1.0 2.0 0.0 0.0 0.0 0.0 1 1 1
427 1 2.5 1.5 2.5 0.0 0.0 0.0 0.0 1 1 1
428 1 2.0 1.0 3.0 0.0 0.0 0.0 0.0 1 1 2
429 1 2.5 1.5 3.5 0.0 0.0 0.0 0.0 1 1 2
430 1 2.0 1.0 4.0 0.0 0.0 0.0 0.0 1 1 2
431 1 2.5 1.5 4.5 0.0 0.0 0.0 0.0 1 1 2
432 1 2.0 1.0 5.0 0.0 0.0 0.0 0.0 1 1 2
433 1 2.5 1.5 5.5 0.0 0.0 0.0 0.0 1 1 2
434 1 2.0 1.0 6.0 0.0 0.0 0.0 0.0 1 1 3
435 1 2.5 1.5 6.5 0.0 0.0 0.0 0.0 1 1 3
436 1 2.0 1.0 7.0 0.0 0.0 0.0 0.0 1 1 3
437 1 2.5 1.5 7.5 0.0 0.0 0.0 0.0 1 1 3
438 1 2.0 1.0 8.0 0.0 0.0 0.0 0.0 1 1 3
439 1 2.5 1.5 8.5 0.0 0.0 0.0 0.0 1 1 3
440 1 2.0 1.0 9.0 0.0 0.0 0.0 0.0 1 1 4
441 1 2.5 1.5 9.5 0.0 0.0 0.0 0.0 1 1 4
442 1 2.0 2.0 0.0 0.0 0.0 0.0 0.0 1 1 1
443 1 2.5 2.5 0.5 0.0 0.0 0.0 0.0 1 1 1
444 1 2.0 2.0 1.0 0.0 0.0 0.0 0.0 1 1 1
445 1 2.5 2.5 1.5 0.0 0.0 0.0 0.0 1 1 1
446 1 2.0 2.0 2.0 0.0 0.0 0.0 0.0 1 1 1
447 1 2.5 2.5 2.5 0.0 0.0 0.0 0.0 1 1 1
448 1 2.0 2.0 3.0 0.0 0.0 0.0 0.0 1 1 2
449 1 2.5 2.5 3.5 0.0 0.0 0.0 0.0 1 1 2
450 1 2.0 2.0 4.0 0.0 0.0 0.0 0.0 1 1 2
451 1 2.5 2.5 4.5 0.0 0.0 0.0 0.0 1 1 2
452 1 2.0 2.0 5.0 0.0 0.0 0.0 0.0 1 1 2
453 1 2.5 2.5 5.5 0.0 0.0 0.0 0.0 1 1 2
454 1 2.0 2.0 6.0 0.0 0.0 0.0 0.0 1 1 3
455 1 2.5 2.5 6.5 0.0 0.0 0.0 0.0 1 1 3
456 1 2.0 2.0 7.0 0.0 0.0 0.0 0.0 1 1 3
457 1 2.5 2.5 7.5 0.0 0.0 0.0 0.0 1 1 3
458 1 2.0 2.0 8.0 0.0 0.0 0.0 0.0 1 1 3
459 1 2.5 2.5 8.5 0.0 0.0 0.0 0.0 1 1 3
460 1 2.0 2.0 9.0 0.0 0.0 0.0 0.0 1 1 4
461 1 2.5 2.5 9.5 0.0 0.0 0.0 0.0 1 1 4
462 1 2.0 3.0 0.0 0.0 0.0 0.0 0.0 1 1 1
463 1 2.5 3.5 0.5 0.0 0.0 0.0 0.0 1 2 1
464 1 2.0 3.0 1.0 0.0 0.0 0.0 0.0 1 1 1
465 1 2.5 3.5 1.5 0.0 0.0 0.0 0.0 1 2 1
466 1 2.0 3.0 2.0 0.0 0.0 0.0 0.0 1 1 1
467 1 2.5 3.5 2.5 0.0 0.0 0.0 0.0 1 2 1
468 1 2.0 3.0 3.0 0.0 0.0 0.0 0.0 1 1 2
469 1 2.5 3.5 3.5 0.0 0.0 0.0 0.0 1 2 2
470 1 2.0 3.0 4.0 0.0 0.0 0.0 0.0 1 1 2
471 1 2.5 3.5 4.5 0.0 0.0 0.0 0.0 1 2 2
472 1 2.0 3.0 5.0 0.0 0.0 0.0 0.0 1 1 2
473 1 2.5 3.5 5.5 0.0 0.0 0.0 0.0 1 2 2
474 1 2.0 3.0 6.0 0.0 0.0 0.0 0.0 1 1 3
475 1 2.5 3.5 6.5 0.0 0.0 0.0 0.0 1 2 3
476 1 2.0 3.0 7.0 0.0 0.0 0.0 0.0 1 1 3
477 1 2.5 3.5 7.5 0.0 0.0 0.0 0.0 1 2 3
478 1 2.0 3.0 8.0 0.0 0.0 0.0 0.0 1 1 3
479 1 2.5 3.5 8.5 0.0 0.0 0.0 0.0 1 2 3
480 1 2.0 3.0 9.0 0.0 0.0 0.0 0.0 1 1 4
481 1 2.5 3.5 9.5 0.0 0.0 0.0 0.0 1 2 4
482 1 2.0 4.0 0.0 0.0 0.0 0.0 0.0 1 2 1
483 1 2.5 4.5 0.5 0.0 0.0 0.0 0.0 1 2 1
484 1 2.0 4.0 1.0 0.0 0.0 0.0 0.0 1 2 1
485 1 2.5 4.5 1.5 0.0 0.0 0.0 0.0 1 2 1
486 1 2.0 4.0 2.0 0.0 0.0 0.0 0.0 1 2 1
487 1 2.5 4.5 2.5 0.0 0.0 0.0 0.0 1 2 1
488 1 2.0 4.0 3.0 0.0 0.0 0.0 0.0 1 2 2
489 1 2.5 4.5 3.5 0.0 0.0 0.0 0.0 1 2 2
490 1 2.0 4.0 4.0 0.0 0.0 0.0 0.0 1 2 2
491 1 2.5 4.5 4.5 0.0 0.0 0.0 0.0 1 2 2
492 1 2.0 4.0 5.0 0.0 0.0 0.0 0.0 1 2 2
493 1 2.5 4.5 5.5 0.0 0.0 0.0 0.0 1 2 2
494 1 2.0 4.0 6.0 0.0 0.0 0.0 0.0 1 2 3
495 1 2.5 4.5 6.5 0.0 0.0 0.0 0.0 1 2 3
496 1 2.0 4.0 7.0 0.0 0.0 0.0 0.0 1 2 3
497 1 2.5 4.5 7.5 0.0 0.0 0.0 0.0 1 2 3
498 1 2.0 4.0 8.0 0.0 0.0 0.0 0.0 1 2 3
499 1 2.5 4.5 8.5 0.0 0.0 0.0 0.0 1 2 3
500 1 2.0 4.0 9.0 0.0 0.0 0.0 0.0 1 2 4
501 1 2.5 4.5 9.5 0.0 0.0 0.0 0.0 1 2 4
502 1 2.0 5.0 0.0 0.0 0.0 0.0 0.0 1 2 1
503 1 2.5 5.5 0.5 0.0 0.0 0.0 0.0 1 2 1
504 1 2.0 5.0 1.0 0.0 0.0 0.0 0.0 1 2 1
505 1 2.5 5.5 1.5 0.0 0.0 0.0 0.0 1 2 1
506 1 2.0 5.0 2.0 0.0 0.0 0.0 0.0 1 2 1
507 1 2.5 5.5 2.5 0.0 0.0 0.0 0.0 1 2 1
508 1 2.0 5.0 3.0 0.0 0.0 0.0 0.0 1 2 2
509 1 2.5 5.5 3.5 0.0 0.0 0.0 0.0 1 2 2
510 1 2.0 5.0 4.0 0.0 0.0 0.0 0.0 1 2 2
511 1 2.5 5.5 4.5 0.0 0.0 0.0 0.0 1 2 2
512 1 2.0 5.0 5.0 0.0 0.0 0.0 0.0 1 2 2
513 1 2.5 5.5 5.5 0.0 0.0 0.0 0.0 1 2 2
514 1 2.0 5.0 6.0 0.0 0.0 0.0 0.0 1 2 3
515 1 2.5 5.5 6.5 0.0 0.0 0.0 0.0 1 2 3
516 1 2.0 5.0 7.0 0.0 0.0 0.0 0.0 1 2 3
517 1 2.5 5.5 7.5 0.0 0.0 0.0 0.0 1 2 3
518 1 2.0 5.0 8.0 0.0 0.0 0.0 0.0 1 2 3
519 1 2.5 5.5 8.5 0.0 0.0 0.0 0.0 1 2 3
520 1 2.0 5.0 9.0 0.0 0.0 0.0 0.0 1 2 4
521 1 2.5 5.5 9.5 0.0 0.0 0.0 0.0 1 2 4
522 1 2.0 6.0 0.0 0.0 0.0 0.0 0.0 1 2 1
523 1 2.5 6.5 0.5 0.0 0.0 0.0 0.0 1 2 1
524 1 2.0 6.0 1.0 0.0 0.0 0.0 0.0 1 2 1
525 1 2.5 6.5 1.5 0.0 0.0 0.0 0.0 1 2 1
526 1 2.0 6.0 2.0 0.0 0.0 0.0 0.0 1 2 1
527 1 2.5 6.5 2.5 0.0 0.0 0.0 0.0 1 2 1
528 1 2.0 6.0 3.0 0.0 0.0 0.0 0.0 1 2 2
529 1 2.5 6.5 3.5 0.0 0.0 0.0 0.0 1 2 2
530 1 2.0 6.0 4.0 0.0 0.0 0.0 0.0 1 2 2
531 1 2.5 6.5 4.5 0.0 0.0 0.0 0.0 1 2 2
532 1 2.0 6.0 5.0 0.0 0.0 0.0 0.0 1 2 2
533 1 2.5 6.5 5.5 0.0 0.0 0.0 0.0 1 2 2
534 1 2.0 6.0 6.0 0.0 0.0 0.0 0.0 1 2 3
535 1 2.5 6.5 6.5 0.0 0.0 0.0 0.0 1 2 3
536 1 2.0 6.0 7.0 0.0 0.0 0.0 0.0 1 2 3
537 1 2.5 6.5 7.5 0.0 0.0 0.0 0.0 1 2 3
538 1 2.0 6.0 8.0 0.0 0.0 0.0 0.0 1 2 3
539 1 2.5 6.5 8.5 0.0 0.0 0.0 0.0 1 2 3
540 1 2.0 6.0 9.0 0.0 0.0 0.0 0.0 1 2 4
541 1 2.5 6.5 9.5 0.0 0.0 0.0 0.0 1 2 4
542 1 2.0 7.0 0.0 0.0 0.0 0.0 0.0 1 3 1
543 1 2.5 7.5 0.5 0.0 0.0 0.0 0.0 1 3 1
544 1 2.0 7.0 1.0 0.0 0.0 0.0 0.0 1 3 1
545 1 2.5 7.5 1.5 0.0 0.0 0.0 0.0 1 3 1
546 1 2.0 7.0 2.0 0.0 0.0 0.0 0.0 1 3 1
547 1 2.5 7.5 2.5 0.0 0.0 0.0 0.0 1 3 1
548 1 2.0 7.0 3.0 0.0 0.0 0.0 0.0 1 3 2
549 1 2.5 7.5 3.5 0.0 0.0 0.0 0.0 1 3 2
550 1 2.0 7.0 4.0 0.0 0.0 0.0 0.0 1 3 2
551 1 2.5 7.5 4.5 0.0 0.0 0.0 0.0 1 3 2
552 1 2.0 7.0 5.0 0.0 0.0 0.0 0.0 1 3 2
553 1 2.5 7.5 5.5 0.0 0.0 0.0 0.0 1 3 2
554 1 2.0 7.0 6.0 0.0 0.0 0.0 0.0 1 3 3
555 1 2.5 7.5 6.5 0.0 0.0 0.0 0.0 1 3 3
556 1 2.0 7.0 7.0 0.0 0.0 0.0 0.0 1 3 3
557 1 2.5 7.5 7.5 0.0 0.0 0.0 0.0 1 3 3
558 1 2.0 7.0 8.0 0.0 0.0 0.0 0.0 1 3 3
559 1 2.5 7.5 8.5 0.0 0.0 0.0 0.0 1 3 3
560 1 2.0 7.0 9.0 0.0 0.0 0.0 0.0 1 3 4
561 1 2.5 7.5 9.5 0.0 0.0 0.0 0.0 1 3 4
562 1 2.0 8.0 0.0 0.0 0.0 0.0 0.0 1 3 1
563 1 2.5 8.5 0.5 0.0 0.0 0.0 0.0 1 3 1
564 1 2.0 8.0 1.0 0.0 0.0 0.0 0.0 1 3 1
565 1 2.5 8.5 1.5 0.0 0.0 0.0 0.0 1 3 1
566 1 2.0 8.0 2.0 0.0 0.0 0.0 0.0 1 3 1
567 1 2.5 8.5 2.5 0.0 0.0 0.0 0.0 1 3 1
568 1 2.0 8.0 3.0 0.0 0.0 0.0 0.0 1 3 2
569 1 2.5 8.5 3.5 0.0 0.0 0.0 0.0 1 3 2
570 1 2.0 8.0 4.0 0.0 0.0 0.0 0.0 1 3 2
571 1 2.5 8.5 4.5 0.0 0.0 0.0 0.0 1 3 2
572 1 2.0 8.0 5.0 0.0 0.0 0.0 0.0 1 3 2
573 1 2.5 8.5 5.5 0.0 0.0 0.0 0.0 1 3 2
574 1 2.0 8.0 6.0 0.0 0.0 0.0 0.0 1 3 3
575 1 2.5 8.5 6.5 0.0 0.0 0.0 0.0 1 3 3
576 1 2.0 8.0 7.0 0.0 0.0 0.0 0.0 1 3 3
577 1 2.5 8.5 7.5 0.0 0.0 0.0 0.0 1 3 3
578 1 2.0 8.0 8.0 0.0 0.0 0.0 0.0 1 3 3
579 1 2.5 8.5 8.5 0.0 0.0 0.0 0.0 1 3 3
580 1 2.0 8.0 9.0 0.0 0.0 0.0 0.0 1 3 4
581 1 2.5 8.5 9.5 0.0 0.0 0.0 0.0 1 3 4
582 1 2.0 9.0 0.0 0.0 0.0 0.0 0.0 1 3 1
583 1 2.5 9.5 0.5 0.0 0.0 0.0 0.0 1 3 1
584 1 2.0 9.0 1.0 0.0 0.0 0.0 0.0 1 3 1
585 1 2.5 9.5 1.5 0.0 0.0 0.0 0.0 1 3 1
586 1 2.0 9.0 2.0 0.0 0.0 0.0 0.0 1 3 1
587 1 2.5 9.5 2.5 0.0 0.0 0.0 0.0 1 3 1
588 1 2.0 9.0 3.0 0.0 0.0 0.0 0.0 1 3 2
589 1 2.5 9.5 3.5 0.0 0.0 0.0 0.0 1 3 2
590 1 2.0 9.0 4.0 0.0 0.0 0.0 0.0 1 3 2
591 1 2.5 9.5 4.5 0.0 0.0 0.0 0.0 1 3 2
592 1 2.0 9.0 5.0 0.0 0.0 0.0 0.0 1 3 2
593 1 2.5 9.5 5.5 0.0 0.0 0.0 0.0 1 3 2
594 1 2.0 9.0 6.0 0.0 0.0 0.0 0.0 1 3 3
595 1 2.5 9.5 6.5 0.0 0.0 0.0 0.0 1 3 3
596 1 2.0 9.0 7.0 0.0 0.0 0.0 0.0 1 3 3
597 1 2.5 9.5 7.5 0.0 0.0 0.0 0.0 1 3 3
598 1 2.0 9.0 8.0 0.0 0.0 0.0 0.0 1 3 3
599 1 2.5 9.5 8.5 0.0 0.0 0.0 0.0 1 3 3
600 1 2.0 9.0 9.0 0.0 0.0 0.0 0.0 1 3 4
601 1 2.5 9.5 9.5 0.0 0.0 0.0 0.0 1 3 4
602 1 3.0 0.0 0.0 0.0 0.0 0.0 0.0 1 1 1
603 1 3.5 0.5 0.5 0.0 0.0 0.0 0.0 2 1 1
604 1 3.0 0.0 1.0 0.0 0.0 0.0 0.0 1 1 1
605 1 3.5 0.5 1.5 0.0 0.0 0.0 0.0 2 1 1
606 1 3.0 0.0 2.0 0.0 0.0 0.0 0.0 1 1 1
607 1 3.5 0.5 2.5 0.0 0.0 0.0 0.0 2 1 1
608 1 3.0 0.0 3.0 0.0 0.0 0.0 0.0 1 1 2
609 1 3.5 0.5 3.5 0.0 0.0 0.0 0.0 2 1 2
610 1 3.0 0.0 4.0 0.0 0.0 0.0 0.0 1 1 2
611 1 3.5 0.5 4.5 0.0 0.0 0.0 0.0 2 1 2
612 1 3.0 0.0 5.0 0.0 0.0 0.0 0.0 1 1 2
613 1 3.5 0.5 5.5 0.0 0.0 0.0 0.0 2 1 2
614 1 3.0 0.0 6.0 0.0 0.0 0.0 0.0 1 1 3
615 1 3.5 0.5 6.5 0.0 0.0 0.0 0.0 2 1 3
616 1 3.0 0.0 7.0 0.0 0.0 0.0 0.0 1 1 3
617 1 3.5 0.5 7.5 0.0 0.0 0.0 0.0 2 1 3
618 1 3.0 0.0 8.0 0.0 0.0 0.0 0.0 1 1 3
619 1 3.5 0.5 8.5 0.0 0.0 0.0 0.0 2 1 3
620 1 3.0 0.0 9.0 0.0 0.0 0.0 0.0 1 1 4
621 1 3.5 0.5 9.5 0.0 0.0 0.0 0.0 2 1 4
622 1 3.0 1.0 0.0 0.0 0.0 0.0 0.0 1 1 1
623 1 3.5 1.5 0.5 0.0 0.0 0.0 0.0 2 1 1
624 1 3.0 1.0 1.0 0.0 0.0 0.0 0.0 1 1 1
625 1 3.5 1.5 1.5 0.0 0.0 0.0 0.0 2 1 1
626 1 3.0 1.0 2.0 0.0 0.0 0.0 0.0 1 1 1
627 1 3.5 1.5 2.5 0.0 0.0 0.0 0.0 2 1 1
628 1 3.0 1.0 3.0 0.0 0.0 0.0 0.0 1 1 2
629 1 3.5 1.5 3.5 0.0 0.0 0.0 0.0 2 1 2
630 1 3.0 1.0 4.0 0.0 0.0 0.0 0.0 1 1 2
631 1 3.5 1.5 4.5 0.0 0.0 0.0 0.0 2 1 2
632 1 3.0 1.0 5.0 0.0 0.0 0.0 0.0 1 1 2
633 1 3.5 1.5 5.5 0.0 0.0 0.0 0.0 2 1 2
634 1 3.0 1.0 6.0 0.0 0.0 0.0 0.0 1 1 3
635 1 3.5 1.5 6.5 0.0 0.0 0.0 0.0 2 1 3
636 1 3.0 1.0 7.0 0.0 0.0 0.0 0.0 1 1 3
637 1 3.5 1.5 7.5 0.0 0.0 0.0 0.0 2 1 3
638 1 3.0 1.0 8.0 0.0 0.0 0.0 0.0 1 1 3
639 1 3.5 1.5 8.5 0.0 0.0 0.0 0.0 2 1 3
640 1 3.0 1.0 9.0 0.0 0.0 0.0 0.0 1 1 4
641 1 3.5 1.5 9.5 0.0 0.0 0.0 0.0 2 1 4
642 1 3.0 2.0 0.0 0.0 0.0 0.0 0.0 1 1 1
643 1 3.5 2.5 0.5 0.0 0.0 0.0 0.0 2 1 1
644 1 3.0 2.0 1.0 0.0 0.0 0.0 0.0 1 1 1
645 1 3.5 2.5 1.5 0.0 0.0 0.0 0.0 2 1 1
646 1 3.0 2.0 2.0 0.0 0.0 0.0 0.0 1 1 1
647 1 3.5 2.5 2.5 0.0 0.0 0.0 0.0 2 1 1
648 1 3.0 2.0 3.0 0.0 0.0 0.0 0.0 1 1 2
649 1 3.5 2.5 3.5 0.0 0.0 0.0 0.0 2 1 2
650 1 3.0 2.0 4.0 0.0 0.0 0.0 0.0 1 1 2
651 1 3.5 2.5 4.5 0.0 0.0 0.0 0.0 2 1 2
652 1 3.0 2.0 5.0 0.0 0.0 0.0 0.0 1 1 2
653 1 3.5 2.5 5.5 0.0 0.0 0.0 0.0 2 1 2
654 1 3.0 2.0 6.0 0.0 0.0 0.0 0.0 1 1 3
655 1 3.5 2.5 6.5 0.0 0.0 0.0 0.0 2 1 3
656 1 3.0 2.0 7.0 0.0 0.0 0.0 0.0 1 1 3
657 1 3.5 2.5 7.5 0.0 0.0 0.0 0.0 2 1 3
658 1 3.0 2.0 8.0 0.0 0.0 0.0 0.0 1 1 3
659 1 3.5 2.5 8.5 0.0 0.0 0.0 0.0 2 1 3
660 1 3.0 2.0 9.0 0.0 0.0 0.0 0.0 1 1 4
661 1 3.5 2.5 9.5 0.0 0.0 0.0 0.0 2 1 4
662 1 3.0 3.0 0.0 0.0 0.0 0.0 0.0 1 1 1
663 1 3.5 3.5 0.5 0.0 0.0 0.0 0.0 2 2 1
664 1 3.0 3.0 1.0 0.0 0.0 0.0 0.0 1 1 1
665 1 3.5 3.5 1.5 0.0 0.0 0.0 0.0 2 2 1
666 1 3.0 3.0 2.0 0.0 0.0 0.0 0.0 1 1 1
667 1 3.5 3.5 2.5 0.0 0.0 0.0 0.0 2 2 1
668 1 3.0 3.0 3.0 0.0 0.0 0.0 0.0 1 1 2
669 1 3.5 3.5 3.5 0.0 0.0 0.0 0.0 2 2 2
670 1 3.0 3.0 4.0 0.0 0.0 0.0 0.0 1 1 2
671 1 3.5 3.5 4.5 0.0 0.0 0.0 0.0 2 2 2
672 1 3.0 3.0 5.0 0.0 0.0 0.0 0.0 1 1 2
673 1 3.5 3.5 5.5 0.0 0.0 0.0 0.0 2 2 2
674 1 3.0 3.0 6.0 0.0 0.0 0.0 0.0 1 1 3
675 1 3.5 3.5 6.5 0.0 0.0 0.0 0.0 2 2 3
676 1 3.0 3.0 7.0 0.0 0.0 0.0 0.0 1 1 3
677 1 3.5 3.5 7.5 0.0 0.0 0.0 0.0 2 2 3
678 1 3.0 3.0 8.0 0.0 0.0 0.0 0.0 1 1 3
679 1 3.5 3.5 8.5 0.0 0.0 0.0 0.0 2 2 3
680 1 3.0 3.0 9.0 0.0 0.0 0.0 0.0 1 1 4
681 1 3.5 3.5 9.5 0.0 0.0 0.0 0.0 2 2 4
682 1 3.0 4.0 0.0 0.0 0.0 0.0 0.0 1 2 1
683 1 3.5 4.5 0.5 0.0 0.0 0.0 0.0 2 2 1
684 1 3.0 4.0 1.0 0.0 0.0 0.0 0.0 1 2 1
685 1 3.5 4.5 1.5 0.0 0.0 0.0 0.0 2 2 1
686 1 3.0 4.0 2.0 0.0 0.0 0.0 0.0 1 2 1
687 1 3.5 4.5 2.5 0.0 0.0 0.0 0.0 2 2 1
688 1 3.0 4.0 3.0 0.0 0.0 0.0 0.0 1 2 2
689 1 3.5 4.5 3.5 0.0 0.0 0.0 0.0 2 2 2
690 1 3.0 4.0 4.0 0.0 0.0 0.0 0.0 1 2 2
691 1 3.5 4.5 4.5 0.0 0.0 0.0 0.0 2 2 2
692 1 3.0 4.0 5.0 0.0 0.0 0.0 0.0 1 2 2
693 1 3.5 4.5 5.5 0.0 0.0 0.0 0.0 2 2 2
694 1 3.0 4.0 6.0 0.0 0.0 0.0 0.0 1 2 3
695 1 3.5 4.5 6.5 0.0 0.0 0.0 0.0 2 2 3
696 1 3.0 4.0 7.0 0.0 0.0 0.0 0.0 1 2 3
697 1 3.5 4.5 7.5 0.0 0.0 0.0 0.0 2 2 3
698 1 3.0 4.0 8.0 0.0 0.0 0.0 0.0 1 2 3
699 1 3.5 4.5 8.5 0.0 0.0 0.0 0.0 2 2 3
700 1 3.0 4.0 9.0 0.0 0.0 0.0 0.0 1 2 4
701 1 3.5 4.5 9.5 0.0 0.0 0.0 0.0 2 2 4
702 1 3.0 5.0 0.0 0.0 0.0 0.0 0.0 1 2 1
703 1 3.5 5.5 0.5 0.0 0.0 0.0 0.0 2 2 1
704 1 3.0 5.0 1.0 0.0 0.0 0.0 0.0 1 2 1
705 1 3.5 5.5 1.5 0.0 0.0 0.0 0.0 2 2 1
706 1 3.0 5.0 2.0 0.0 0.0 0.0 0.0 1 2 1
707 1 3.5 5.5 2.5 0.0 0.0 0.0 0.0 2 2 1
708 1 3.0 5.0 3.0 0.0 0.0 0.0 0.0 1 2 2
709 1 3.5 5.5 3.5 0.0 0.0 0.0 0.0 2 2 2
710 1 3.0 5.0 4.0 0.0 0.0 0.0 0.0 1 2 2
711 1 3.5 5.5 4.5 0.0 0.0 0.0 0.0 2 2 2
712 1 3.0 5.0 5.0 0.0 0.0 0.0 0.0 1 2 2
713 1 3.5 5.5 5.5 0.0 0.0 0.0 0.0 2 2 2
714 1 3.0 5.0 6.0 0.0 0.0 0.0 0.0 1 2 3
715 1 3.5 5.5 6.5 0.0 0.0 0.0 0.0 2 2 3
716 1 3.0 5.0 7.0 0.0 0.0 0.0 0.0 1 2 3
717 1 3.5 5.5 7.5 0.0 0.0 0.0 0.0 2 2 3
718 1 3.0 5.0 8.0 0.0 0.0 0.0 0.0 1 2 3
719 1 3.5 5.5 8.5 0.0 0.0 0.0 0.0 2 2 3
720 1 3.0 5.0 9.0 0.0 0.0 0.0 0.0 1 2 4
721 1 3.5 5.5 9.5 0.0 0.0 0.0 0.0 2 2 4
722 1 3.0 6.0 0.0 0.0 0.0 0.0 0.0 1 2 1
723 1 3.5 6.5 0.5 0.0 0.0 0.0 0.0 2 2 1
724 1 3.0 6.0 1.0 0.0 0.0 0.0 0.0 1 2 1
725 1 3.5 6.5 1.5 0.0 0.0 0.0 0.0 2 2 1
726 1 3.0 6.0 2.0 0.0 0.0 0.0 0.0 1 2 1
727 1 3.5 6.5 2.5 0.0 0.0 0.0 0.0 2 2 1
728 1 3.0 6.0 3.0 0.0 0.0 0.0 0.0 1 2 2
729 1 3.5 6.5 3.5 0.0 0.0 0.0 0.0 2 2 2
730 1 3.0 6.0 4.0 0.0 0.0 0.0 0.0 1 2 2
731 1 3.5 6.5 4.5 0.0 0.0 0.0 0.0 2 2 2
732 1 3.0 6.0 5.0 0.0 0.0 0.0 0.0 1 2 2
733 1 3.5 6.5 5.5 0.0 0.0 0.0 0.0 2 2 2
734 1 3.0 6.0 6.0 0.0 0.0 0.0 0.0 1 2 3
735 1 3.5 6.5 6.5 0.0 0.0 0.0 0.0 2 2 3
736 1 3.0 6.0 7.0 0.0 0.0 0.0 0.0 1 2 3
737 1 3.5 6.5 7.5 0.0 0.0 0.0 0.0 2 2 3
738 1 3.0 6.0 8.0 0.0 0.0 0.0 0.0 1 2 3
739 1 3.5 6.5 8.5 0.0 0.0 0.0 0.0 2 2 3
740 1 3.0 6.0 9.0 0.0 0.0 0.0 0.0 1 2 4
741 1 3.5 6.5 9.5 0.0 0.0 0.0 0.0 2 2 4
742 1 3.0 7.0 0.0 0.0 0.0 0.0 0.0 1 3 1
743 1 3.5 7.5 0.5 0.0 0.0 0.0 0.0 2 3 1
744 1 3.0 7.0 1.0 0.0 0.0 0.0 0.0 1 3 1
745 1 3.5 7.5 1.5 0.0 0.0 0.0 0.0 2 3 1
746 1 3.0 7.0 2.0 0.0 0.0 0.0 0.0 1 3 1
747 1 3.5 7.5 2.5 0.0 0.0 0.0 0.0 2 3 1
748 1 3.0 7.0 3.0 0.0 0.0 0.0 0.0 1 3 2
749 1 3.5 7.5 3.5 0.0 0.0 0.0 0.0 2 3 2
750 1 3.0 7.0 4.0 0.0 0.0 0.0 0.0 1 3 2