ITEM: TIMESTEP
0
ITEM: NUMBER OF ATOMS
800
ITEM: BOX BOUNDS pp pp ff 
0 43.5
0 50.22947341949744
0 30.0
ITEM: ATOMS id type x y z vx vy vz energy cx cy cz dte
1 1 0.0 0.0 6.0 0.0 0.0 0.0 0.0 1 1 2 19.9609375
2 2 1.4499999999999997 0.0 6.0 0.0 0.0 0.0 0.0 1 1 2 22.7734375
3 1 2.175 1.2557368354874359 6.0 0.0 0.0 0.0 0.0 1 1 2 19.9609375
4 2 3.625 1.2557368354874359 6.0 0.0 0.0 0.0 0.0 2 1 2 22.7734375
5 1 0.0 2.5114736709748717 6.0 0.0 0.0 0.0 0.0 1 1 2 19.9609375
6 2 1.4499999999999997 2.5114736709748717 6.0 0.0 0.0 0.0 0.0 1 1 2 22.7734375
7 1 2.175 3.7672105064623076 6.0 0.0 0.0 0.0 0.0 1 2 2 19.9609375
8 2 3.625 3.7672105064623076 6.0 0.0 0.0 0.0 0.0 2 2 2 22.7734375
9 1 0.0 5.0229473419497435 6.0 0.0 0.0 0.0 0.0 1 2 2 19.9609375
10 2 1.4499999999999997 5.0229473419497435 6.0 0.0 0.0 0.0 0.0 1 2 2 22.7734375
11 1 2.175 6.27868417743718 6.0 0.0 0.0 0.0 0.0 1 3 2 19.9609375
12 2 3.625 6.27868417743718 6.0 0.0 0.0 0.0 0.0 2 3 2 22.7734375
13 1 0.0 7.534421012924615 6.0 0.0 0.0 0.0 0.0 1 3 2 19.9609375
14 2 1.4499999999999997 7.534421012924615 6.0 0.0 0.0 0.0 0.0 1 3 2 22.7734375
15 1 2.175 8.79015784841205 6.0 0.0 0.0 0.0 0.0 1 3 2 19.9609375
16 2 3.625 8.79015784841205 6.0 0.0 0.0 0.0 0.0 2 3 2 22.7734375
17 1 0.0 10.045894683899487 6.0 0.0 0.0 0.0 0.0 1 4 2 19.9609375
18 2 1.4499999999999997 10.045894683899487 6.0 0.0 0.0 0.0 0.0 1 4 2 22.7734375
19 1 2.175 11.301631519386923 6.0 0.0 0.0 0.0 0.0 1 4 2 19.9609375
20 2 3.625 11.301631519386923 6.0 0.0 0.0 0.0 0.0 2 4 2 22.7734375
21 1 0.0 12.55736835487436 6.0 0.0 0.0 0.0 0.0 1 5 2 19.9609375
22 2 1.4499999999999997 12.55736835487436 6.0 0.0 0.0 0.0 0.0 1 5 2 22.7734375
23 1 2.175 13.813105190361794 6.0 0.0 0.0 0.0 0.0 1 5 2 19.9609375
24 2 3.625 13.813105190361794 6.0 0.0 0.0 0.0 0.0 2 5 2 22.7734375
25 1 0.0 15.06884202584923 6.0 0.0 0.0 0.0 0.0 1 5 2 19.9609375
26 2 1.4499999999999997 15.06884202584923 6.0 0.0 0.0 0.0 0.0 1 5 2 22.7734375
27 1 2.175 16.324578861336665 6.0 0.0 0.0 0.0 0.0 1 6 2 19.9609375
28 2 3.625 16.324578861336665 6.0 0.0 0.0 0.0 0.0 2 6 2 22.7734375
29 1 0.0 17.5803156968241 6.0 0.0 0.0 0.0 0.0 1 6 2 19.9609375
30 2 1.4499999999999997 17.5803156968241 6.0 0.0 0.0 0.0 0.0 1 6 2 22.7734375
31 1 2.175 18.836052532311538 6.0 0.0 0.0 0.0 0.0 1 6 2 19.9609375
32 2 3.625 18.836052532311538 6.0 0.0 0.0 0.0 0.0 2 6 2 22.7734375
33 1 0.0 20.091789367798974 6.0 0.0 0.0 0.0 0.0 1 7 2 19.9609375
34 2 1.4499999999999997 20.091789367798974 6.0 0.0 0.0 0.0 0.0 1 7 2 22.7734375
35 1 2.175 21.34752620328641 6.0 0.0 0.0 0.0 0.0 1 7 2 19.9609375
36 2 3.625 21.34752620328641 6.0 0.0 0.0 0.0 0.0 2 7 2 22.7734375
37 1 0.0 22.603263038773846 6.0 0.0 0.0 0.0 0.0 1 8 2 19.9609375
38 2 1.4499999999999997 22.603263038773846 6.0 0.0 0.0 0.0 0.0 1 8 2 22.7734375
39 1 2.175 23.858999874261283 6.0 0.0 0.0 0.0 0.0 1 8 2 19.9609375
40 2 3.625 23.858999874261283 6.0 0.0 0.0 0.0 0.0 2 8 2 22.7734375
41 1 0.0 25.11473670974872 6.0 0.0 0.0 0.0 0.0 1 9 2 19.9609375
42 2 1.4499999999999997 25.11473670974872 6.0 0.0 0.0 0.0 0.0 1 9 2 22.7734375
43 1 2.175 26.370473545236152 6.0 0.0 0.0 0.0 0.0 1 9 2 19.9609375
44 2 3.625 26.370473545236152 6.0 0.0 0.0 0.0 0.0 2 9 2 22.7734375
45 1 0.0 27.626210380723588 6.0 0.0 0.0 0.0 0.0 1 9 2 19.9609375
46 2 1.4499999999999997 27.626210380723588 6.0 0.0 0.0 0.0 0.0 1 9 2 22.7734375
47 1 2.175 28.881947216211024 6.0 0.0 0.0 0.0 0.0 1 10 2 19.9609375
48 2 3.625 28.881947216211024 6.0 0.0 0.0 0.0 0.0 2 10 2 22.7734375
49 1 0.0 30.13768405169846 6.0 0.0 0.0 0.0 0.0 1 10 2 19.9609375
50 2 1.4499999999999997 30.13768405169846 6.0 0.0 0.0 0.0 0.0 1 10 2 22.7734375
51 1 2.175 31.393420887185897 6.0 0.0 0.0 0.0 0.0 1 11 2 19.9609375
52 2 3.625 31.393420887185897 6.0 0.0 0.0 0.0 0.0 2 11 2 22.7734375
53 1 0.0 32.64915772267333 6.0 0.0 0.0 0.0 0.0 1 11 2 19.9609375
54 2 1.4499999999999997 32.64915772267333 6.0 0.0 0.0 0.0 0.0 1 11 2 22.7734375
55 1 2.175 33.90489455816077 6.0 0.0 0.0 0.0 0.0 1 11 2 19.9609375
56 2 3.625 33.90489455816077 6.0 0.0 0.0 0.0 0.0 2 11 2 22.7734375
57 1 0.0 35.1606313936482 6.0 0.0 0.0 0.0 0.0 1 12 2 19.9609375
58 2 1.4499999999999997 35.1606313936482 6.0 0.0 0.0 0.0 0.0 1 12 2 22.7734375
59 1 2.175 36.41636822913564 6.0 0.0 0.0 0.0 0.0 1 12 2 19.9609375
60 2 3.625 36.41636822913564 6.0 0.0 0.0 0.0 0.0 2 12 2 22.7734375
61 1 0.0 37.672105064623075 6.0 0.0 0.0 0.0 0.0 1 12 2 19.9609375
62 2 1.4499999999999997 37.672105064623075 6.0 0.0 0.0 0.0 0.0 1 12 2 22.7734375
63 1 2.175 38.927841900110515 6.0 0.0 0.0 0.0 0.0 1 13 2 19.9609375
64 2 3.625 38.927841900110515 6.0 0.0 0.0 0.0 0.0 2 13 2 22.7734375
65 1 0.0 40.18357873559795 6.0 0.0 0.0 0.0 0.0 1 13 2 19.9609375
66 2 1.4499999999999997 40.18357873559795 6.0 0.0 0.0 0.0 0.0 1 13 2 22.7734375
67 1 2.175 41.43931557108538 6.0 0.0 0.0 0.0 0.0 1 14 2 19.9609375
68 2 3.625 41.43931557108538 6.0 0.0 0.0 0.0 0.0 2 14 2 22.7734375
69 1 0.0 42.69505240657282 6.0 0.0 0.0 0.0 0.0 1 14 2 19.9609375
70 2 1.4499999999999997 42.69505240657282 6.0 0.0 0.0 0.0 0.0 1 14 2 22.7734375
71 1 2.175 43.95078924206025 6.0 0.0 0.0 0.0 0.0 1 14 2 19.9609375
72 2 3.625 43.95078924206025 6.0 0.0 0.0 0.0 0.0 2 14 2 22.7734375
73 1 0.0 45.20652607754769 6.0 0.0 0.0 0.0 0.0 1 15 2 19.9609375
74 2 1.4499999999999997 45.20652607754769 6.0 0.0 0.0 0.0 0.0 1 15 2 22.7734375
75 1 2.175 46.462262913035126 6.0 0.0 0.0 0.0 0.0 1 15 2 19.9609375
76 2 3.625 46.462262913035126 6.0 0.0 0.0 0.0 0.0 2 15 2 22.7734375
77 1 0.0 47.717999748522566 6.0 0.0 0.0 0.0 0.0 1 16 2 19.9609375
78 2 1.4499999999999997 47.717999748522566 6.0 0.0 0.0 0.0 0.0 1 16 2 22.7734375
79 1 2.175 48.97373658401 6.0 0.0 0.0 0.0 0.0 1 16 2 19.9609375
80 2 3.625 48.97373658401 6.0 0.0 0.0 0.0 0.0 2 16 2 22.7734375
81 1 4.35 0.0 6.0 0.0 0.0 0.0 0.0 2 1 2 19.9609375
82 2 5.799999999999999 0.0 6.0 0.0 0.0 0.0 0.0 2 1 2 22.7734375
83 1 6.5249999999999995 1.2557368354874359 6.0 0.0 0.0 0.0 0.0 3 1 2 19.9609375
84 2 7.975 1.2557368354874359 6.0 0.0 0.0 0.0 0.0 3 1 2 22.7734375
85 1 4.35 2.5114736709748717 6.0 0.0 0.0 0.0 0.0 2 1 2 19.9609375
86 2 5.799999999999999 2.5114736709748717 6.0 0.0 0.0 0.0 0.0 2 1 2 22.7734375
87 1 6.5249999999999995 3.7672105064623076 6.0 0.0 0.0 0.0 0.0 3 2 2 19.9609375
88 2 7.975 3.7672105064623076 6.0 0.0 0.0 0.0 0.0 3 2 2 22.7734375
89 1 4.35 5.0229473419497435 6.0 0.0 0.0 0.0 0.0 2 2 2 19.9609375
90 2 5.799999999999999 5.0229473419497435 6.0 0.0 0.0 0.0 0.0 2 2 2 22.7734375
91 1 6.5249999999999995 6.27868417743718 6.0 0.0 0.0 0.0 0.0 3 3 2 19.9609375
92 2 7.975 6.27868417743718 6.0 0.0 0.0 0.0 0.0 3 3 2 22.7734375
93 1 4.35 7.534421012924615 6.0 0.0 0.0 0.0 0.0 2 3 2 19.9609375
94 2 5.799999999999999 7.534421012924615 6.0 0.0 0.0 0.0 0.0 2 3 2 22.7734375
95 1 6.5249999999999995 8.79015784841205 6.0 0.0 0.0 0.0 0.0 3 3 2 19.9609375
96 2 7.975 8.79015784841205 6.0 0.0 0.0 0.0 0.0 3 3 2 22.7734375
97 1 4.35 10.045894683899487 6.0 0.0 0.0 0.0 0.0 2 4 2 19.9609375
98 2 5.799999999999999 10.045894683899487 6.0 0.0 0.0 0.0 0.0 2 4 2 22.7734375
99 1 6.5249999999999995 11.301631519386923 6.0 0.0 0.0 0.0 0.0 3 4 2 19.9609375
100 2 7.975 11.301631519386923 6.0 0.0 0.0 0.0 0.0 3 4 2 22.7734375
101 1 4.35 12.55736835487436 6.0 0.0 0.0 0.0 0.0 2 5 2 19.9609375
102 2 5.799999999999999 12.55736835487436 6.0 0.0 0.0 0.0 0.0 2 5 2 22.7734375
103 1 6.5249999999999995 13.813105190361794 6.0 0.0 0.0 0.0 0.0 3 5 2 19.9609375
104 2 7.975 13.813105190361794 6.0 0.0 0.0 0.0 0.0 3 5 2 22.7734375
105 1 4.35 15.06884202584923 6.0 0.0 0.0 0.0 0.0 2 5 2 19.9609375
106 2 5.799999999999999 15.06884202584923 6.0 0.0 0.0 0.0 0.0 2 5 2 22.7734375
107 1 6.5249999999999995 16.324578861336665 6.0 0.0 0.0 0.0 0.0 3 6 2 19.9609375
108 2 7.975 16.324578861336665 6.0 0.0 0.0 0.0 0.0 3 6 2 22.7734375
109 1 4.35 17.5803156968241 6.0 0.0 0.0 0.0 0.0 2 6 2 19.9609375
110 2 5.799999999999999 17.5803156968241 6.0 0.0 0.0 0.0 0.0 2 6 2 22.7734375
111 1 6.5249999999999995 18.836052532311538 6.0 0.0 0.0 0.0 0.0 3 6 2 19.9609375
112 2 7.975 18.836052532311538 6.0 0.0 0.0 0.0 0.0 3 6 2 22.7734375
113 1 4.35 20.091789367798974 6.0 0.0 0.0 0.0 0.0 2 7 2 19.9609375
114 2 5.799999999999999 20.091789367798974 6.0 0.0 0.0 0.0 0.0 2 7 2 22.7734375
115 1 6.5249999999999995 21.34752620328641 6.0 0.0 0.0 0.0 0.0 3 7 2 19.9609375
116 2 7.975 21.34752620328641 6.0 0.0 0.0 0.0 0.0 3 7 2 22.7734375
117 1 4.35 22.603263038773846 6.0 0.0 0.0 0.0 0.0 2 8 2 19.9609375
118 2 5.799999999999999 22.603263038773846 6.0 0.0 0.0 0.0 0.0 2 8 2 22.7734375
119 1 6.5249999999999995 23.858999874261283 6.0 0.0 0.0 0.0 0.0 3 8 2 19.9609375
120 2 7.975 23.858999874261283 6.0 0.0 0.0 0.0 0.0 3 8 2 22.7734375
121 1 4.35 25.11473670974872 6.0 0.0 0.0 0.0 0.0 2 9 2 19.9609375
122 2 5.799999999999999 25.11473670974872 6.0 0.0 0.0 0.0 0.0 2 9 2 22.7734375
123 1 6.5249999999999995 26.370473545236152 6.0 0.0 0.0 0.0 0.0 3 9 2 19.9609375
124 2 7.975 26.370473545236152 6.0 0.0 0.0 0.0 0.0 3 9 2 22.7734375
125 1 4.35 27.626210380723588 6.0 0.0 0.0 0.0 0.0 2 9 2 19.9609375
126 2 5.799999999999999 27.626210380723588 6.0 0.0 0.0 0.0 0.0 2 9 2 22.7734375
127 1 6.5249999999999995 28.881947216211024 6.0 0.0 0.0 0.0 0.0 3 10 2 19.9609375
128 2 7.975 28.881947216211024 6.0 0.0 0.0 0.0 0.0 3 10 2 22.7734375
129 1 4.35 30.13768405169846 6.0 0.0 0.0 0.0 0.0 2 10 2 19.9609375
130 2 5.799999999999999 30.13768405169846 6.0 0.0 0.0 0.0 0.0 2 10 2 22.7734375
131 1 6.5249999999999995 31.393420887185897 6.0 0.0 0.0 0.0 0.0 3 11 2 19.9609375
132 2 7.975 31.393420887185897 6.0 0.0 0.0 0.0 0.0 3 11 2 22.7734375
133 1 4.35 32.64915772267333 6.0 0.0 0.0 0.0 0.0 2 11 2 19.9609375
134 2 5.799999999999999 32.64915772267333 6.0 0.0 0.0 0.0 0.0 2 11 2 22.7734375
135 1 6.5249999999999995 33.90489455816077 6.0 0.0 0.0 0.0 0.0 3 11 2 19.9609375
136 2 7.975 33.90489455816077 6.0 0.0 0.0 0.0 0.0 3 11 2 22.7734375
137 1 4.35 35.1606313936482 6.0 0.0 0.0 0.0 0.0 2 12 2 19.9609375
138 2 5.799999999999999 35.1606313936482 6.0 0.0 0.0 0.0 0.0 2 12 2 22.7734375
139 1 6.5249999999999995 36.41636822913564 6.0 0.0 0.0 0.0 0.0 3 12 2 19.9609375
140 2 7.975 36.41636822913564 6.0 0.0 0.0 0.0 0.0 3 12 2 22.7734375
141 1 4.35 37.672105064623075 6.0 0.0 0.0 0.0 0.0 2 12 2 19.9609375
142 2 5.799999999999999 37.672105064623075 6.0 0.0 0.0 0.0 0.0 2 12 2 22.7734375
143 1 6.5249999999999995 38.927841900110515 6.0 0.0 0.0 0.0 0.0 3 13 2 19.9609375
144 2 7.975 38.927841900110515 6.0 0.0 0.0 0.0 0.0 3 13 2 22.7734375
145 1 4.35 40.18357873559795 6.0 0.0 0.0 0.0 0.0 2 13 2 19.9609375
146 2 5.799999999999999 40.18357873559795 6.0 0.0 0.0 0.0 0.0 2 13 2 22.7734375
147 1 6.5249999999999995 41.43931557108538 6.0 0.0 0.0 0.0 0.0 3 14 2 19.9609375
148 2 7.975 41.43931557108538 6.0 0.0 0.0 0.0 0.0 3 14 2 22.7734375
149 1 4.35 42.69505240657282 6.0 0.0 0.0 0.0 0.0 2 14 2 19.9609375
150 2 5.799999999999999 42.69505240657282 6.0 0.0 0.0 0.0 0.0 2 14 2 22.7734375
151 1 6.5249999999999995 43.95078924206025 6.0 0.0 0.0 0.0 0.0 3 14 2 19.9609375
152 2 7.975 43.95078924206025 6.0 0.0 0.0 0.0 0.0 3 14 2 22.7734375
153 1 4.35 45.20652607754769 6.0 0.0 0.0 0.0 0.0 2 15 2 19.9609375
154 2 5.799999999999999 45.20652607754769 6.0 0.0 0.0 0.0 0.0 2 15 2 22.7734375
155 1 6.5249999999999995 46.462262913035126 6.0 0.0 0.0 0.0 0.0 3 15 2 19.9609375
156 2 7.975 46.462262913035126 6.0 0.0 0.0 0.0 0.0 3 15 2 22.7734375
157 1 4.35 47.717999748522566 6.0 0.0 0.0 0.0 0.0 2 16 2 19.9609375
158 2 5.799999999999999 47.717999748522566 6.0 0.0 0.0 0.0 0.0 2 16 2 22.7734375
159 1 6.5249999999999995 48.97373658401 6.0 0.0 0.0 0.0 0.0 3 16 2 19.9609375
160 2 7.975 48.97373658401 6.0 0.0 0.0 0.0 0.0 3 16 2 22.7734375
161 1 8.7 0.0 6.0 0.0 0.0 0.0 0.0 3 1 2 19.9609375
162 2 10.15 0.0 6.0 0.0 0.0 0.0 0.0 4 1 2 22.7734375
163 1 10.875 1.2557368354874359 6.0 0.0 0.0 0.0 0.0 4 1 2 19.9609375
164 2 12.325 1.2557368354874359 6.0 0.0 0.0 0.0 0.0 4 1 2 22.7734375
165 1 8.7 2.5114736709748717 6.0 0.0 0.0 0.0 0.0 3 1 2 19.9609375
166 2 10.15 2.5114736709748717 6.0 0.0 0.0 0.0 0.0 4 1 2 22.7734375
167 1 10.875 3.7672105064623076 6.0 0.0 0.0 0.0 0.0 4 2 2 19.9609375
168 2 12.325 3.7672105064623076 6.0 0.0 0.0 0.0 0.0 4 2 2 22.7734375
169 1 8.7 5.0229473419497435 6.0 0.0 0.0 0.0 0.0 3 2 2 19.9609375
170 2 10.15 5.0229473419497435 6.0 0.0 0.0 0.0 0.0 4 2 2 22.7734375
171 1 10.875 6.27868417743718 6.0 0.0 0.0 0.0 0.0 4 3 2 19.9609375
172 2 12.325 6.27868417743718 6.0 0.0 0.0 0.0 0.0 4 3 2 22.7734375
173 1 8.7 7.534421012924615 6.0 0.0 0.0 0.0 0.0 3 3 2 19.9609375
174 2 10.15 7.534421012924615 6.0 0.0 0.0 0.0 0.0 4 3 2 22.7734375
175 1 10.875 8.79015784841205 6.0 0.0 0.0 0.0 0.0 4 3 2 19.9609375
176 2 12.325 8.79015784841205 6.0 0.0 0.0 0.0 0.0 4 3 2 22.7734375
177 1 8.7 10.045894683899487 6.0 0.0 0.0 0.0 0.0 3 4 2 19.9609375
178 2 10.15 10.045894683899487 6.0 0.0 0.0 0.0 0.0 4 4 2 22.7734375
179 1 10.875 11.301631519386923 6.0 0.0 0.0 0.0 0.0 4 4 2 19.9609375
180 2 12.325 11.301631519386923 6.0 0.0 0.0 0.0 0.0 4 4 2 22.7734375
181 1 8.7 12.55736835487436 6.0 0.0 0.0 0.0 0.0 3 5 2 19.9609375
182 2 10.15 12.55736835487436 6.0 0.0 0.0 0.0 0.0 4 5 2 22.7734375
183 1 10.875 13.813105190361794 6.0 0.0 0.0 0.0 0.0 4 5 2 19.9609375
184 2 12.325 13.813105190361794 6.0 0.0 0.0 0.0 0.0 4 5 2 22.7734375
185 1 8.7 15.06884202584923 6.0 0.0 0.0 0.0 0.0 3 5 2 19.9609375
186 2 10.15 15.06884202584923 6.0 0.0 0.0 0.0 0.0 4 5 2 22.7734375
187 1 10.875 16.324578861336665 6.0 0.0 0.0 0.0 0.0 4 6 2 19.9609375
188 2 12.325 16.324578861336665 6.0 0.0 0.0 0.0 0.0 4 6 2 22.7734375
189 1 8.7 17.5803156968241 6.0 0.0 0.0 0.0 0.0 3 6 2 19.9609375
190 2 10.15 17.5803156968241 6.0 0.0 0.0 0.0 0.0 4 6 2 22.7734375
191 1 10.875 18.836052532311538 6.0 0.0 0.0 0.0 0.0 4 6 2 19.9609375
192 2 12.325 18.836052532311538 6.0 0.0 0.0 0.0 0.0 4 6 2 22.7734375
193 1 8.7 20.091789367798974 6.0 0.0 0.0 0.0 0.0 3 7 2 19.9609375
194 2 10.15 20.091789367798974 6.0 0.0 0.0 0.0 0.0 4 7 2 22.7734375
195 1 10.875 21.34752620328641 6.0 0.0 0.0 0.0 0.0 4 7 2 19.9609375
196 2 12.325 21.34752620328641 6.0 0.0 0.0 0.0 0.0 4 7 2 22.7734375
197 1 8.7 22.603263038773846 6.0 0.0 0.0 0.0 0.0 3 8 2 19.9609375
198 2 10.15 22.603263038773846 6.0 0.0 0.0 0.0 0.0 4 8 2 22.7734375
199 1 10.875 23.858999874261283 6.0 0.0 0.0 0.0 0.0 4 8 2 19.9609375
200 2 12.325 23.858999874261283 6.0 0.0 0.0 0.0 0.0 4 8 2 22.7734375
201 1 8.7 25.11473670974872 6.0 0.0 0.0 0.0 0.0 3 9 2 19.9609375
202 2 10.15 25.11473670974872 6.0 0.0 0.0 0.0 0.0 4 9 2 22.7734375
203 1 10.875 26.370473545236152 6.0 0.0 0.0 0.0 0.0 4 9 2 19.9609375
204 2 12.325 26.370473545236152 6.0 0.0 0.0 0.0 0.0 4 9 2 22.7734375
205 1 8.7 27.626210380723588 6.0 0.0 0.0 0.0 0.0 3 9 2 19.9609375
206 2 10.15 27.626210380723588 6.0 0.0 0.0 0.0 0.0 4 9 2 22.7734375
207 1 10.875 28.881947216211024 6.0 0.0 0.0 0.0 0.0 4 10 2 19.9609375
208 2 12.325 28.881947216211024 6.0 0.0 0.0 0.0 0.0 4 10 2 22.7734375
209 1 8.7 30.13768405169846 6.0 0.0 0.0 0.0 0.0 3 10 2 19.9609375
210 2 10.15 30.13768405169846 6.0 0.0 0.0 0.0 0.0 4 10 2 22.7734375
211 1 10.875 31.393420887185897 6.0 0.0 0.0 0.0 0.0 4 11 2 19.9609375
212 2 12.325 31.393420887185897 6.0 0.0 0.0 0.0 0.0 4 11 2 22.7734375
213 1 8.7 32.64915772267333 6.0 0.0 0.0 0.0 0.0 3 11 2 19.9609375
214 2 10.15 32.64915772267333 6.0 0.0 0.0 0.0 0.0 4 11 2 22.7734375
215 1 10.875 33.90489455816077 6.0 0.0 0.0 0.0 0.0 4 11 2 19.9609375
216 2 12.325 33.90489455816077 6.0 0.0 0.0 0.0 0.0 4 11 2 22.7734375
217 1 8.7 35.1606313936482 6.0 0.0 0.0 0.0 0.0 3 12 2 19.9609375
218 2 10.15 35.1606313936482 6.0 0.0 0.0 0.0 0.0 4 12 2 22.7734375
219 1 10.875 36.41636822913564 6.0 0.0 0.0 0.0 0.0 4 12 2 19.9609375
220 2 12.325 36.41636822913564 6.0 0.0 0.0 0.0 0.0 4 12 2 22.7734375
221 1 8.7 37.672105064623075 6.0 0.0 0.0 0.0 0.0 3 12 2 19.9609375
222 2 10.15 37.672105064623075 6.0 0.0 0.0 0.0 0.0 4 12 2 22.7734375
223 1 10.875 38.927841900110515 6.0 0.0 0.0 0.0 0.0 4 13 2 19.9609375
224 2 12.325 38.927841900110515 6.0 0.0 0.0 0.0 0.0 4 13 2 22.7734375
225 1 8.7 40.18357873559795 6.0 0.0 0.0 0.0 0.0 3 13 2 19.9609375
226 2 10.15 40.18357873559795 6.0 0.0 0.0 0.0 0.0 4 13 2 22.7734375
227 1 10.875 41.43931557108538 6.0 0.0 0.0 0.0 0.0 4 14 2 19.9609375
228 2 12.325 41.43931557108538 6.0 0.0 0.0 0.0 0.0 4 14 2 22.7734375
229 1 8.7 42.69505240657282 6.0 0.0 0.0 0.0 0.0 3 14 2 19.9609375
230 2 10.15 42.69505240657282 6.0 0.0 0.0 0.0 0.0 4 14 2 22.7734375
231 1 10.875 43.95078924206025 6.0 0.0 0.0 0.0 0.0 4 14 2 19.9609375
232 2 12.325 43.95078924206025 6.0 0.0 0.0 0.0 0.0 4 14 2 22.7734375
233 1 8.7 45.20652607754769 6.0 0.0 0.0 0.0 0.0 3 15 2 19.9609375
234 2 10.15 45.20652607754769 6.0 0.0 0.0 0.0 0.0 4 15 2 22.7734375
235 1 10.875 46.462262913035126 6.0 0.0 0.0 0.0 0.0 4 15 2 19.9609375
236 2 12.325 46.462262913035126 6.0 0.0 0.0 0.0 0.0 4 15 2 22.7734375
237 1 8.7 47.717999748522566 6.0 0.0 0.0 0.0 0.0 3 16 2 19.9609375
238 2 10.15 47.717999748522566 6.0 0.0 0.0 0.0 0.0 4 16 2 22.7734375
239 1 10.875 48.97373658401 6.0 0.0 0.0 0.0 0.0 4 16 2 19.9609375
240 2 12.325 48.97373658401 6.0 0.0 0.0 0.0 0.0 4 16 2 22.7734375
241 1 13.049999999999999 0.0 6.0 0.0 0.0 0.0 0.0 5 1 2 19.9609375
242 2 14.5 0.0 6.0 0.0 0.0 0.0 0.0 5 1 2 22.7734375
243 1 15.224999999999998 1.2557368354874359 6.0 0.0 0.0 0.0 0.0 5 1 2 19.9609375
244 2 16.675 1.2557368354874359 6.0 0.0 0.0 0.0 0.0 6 1 2 22.7734375
245 1 13.049999999999999 2.5114736709748717 6.0 0.0 0.0 0.0 0.0 5 1 2 19.9609375
246 2 14.5 2.5114736709748717 6.0 0.0 0.0 0.0 0.0 5 1 2 22.7734375
247 1 15.224999999999998 3.7672105064623076 6.0 0.0 0.0 0.0 0.0 5 2 2 19.9609375
248 2 16.675 3.7672105064623076 6.0 0.0 0.0 0.0 0.0 6 2 2 22.7734375
249 1 13.049999999999999 5.0229473419497435 6.0 0.0 0.0 0.0 0.0 5 2 2 19.9609375
250 2 14.5 5.0229473419497435 6.0 0.0 0.0 0.0 0.0 5 2 2 22.7734375
251 1 15.224999999999998 6.27868417743718 6.0 0.0 0.0 0.0 0.0 5 3 2 19.9609375
252 2 16.675 6.27868417743718 6.0 0.0 0.0 0.0 0.0 6 3 2 22.7734375
253 1 13.049999999999999 7.534421012924615 6.0 0.0 0.0 0.0 0.0 5 3 2 19.9609375
254 2 14.5 7.534421012924615 6.0 0.0 0.0 0.0 0.0 5 3 2 22.7734375
255 1 15.224999999999998 8.79015784841205 6.0 0.0 0.0 0.0 0.0 5 3 2 19.9609375
256 2 16.675 8.79015784841205 6.0 0.0 0.0 0.0 0.0 6 3 2 22.7734375
257 1 13.049999999999999 10.045894683899487 6.0 0.0 0.0 0.0 0.0 5 4 2 19.9609375
258 2 14.5 10.045894683899487 6.0 0.0 0.0 0.0 0.0 5 4 2 22.7734375
259 1 15.224999999999998 11.301631519386923 6.0 0.0 0.0 0.0 0.0 5 4 2 19.9609375
260 2 16.675 11.301631519386923 6.0 0.0 0.0 0.0 0.0 6 4 2 22.7734375
261 1 13.049999999999999 12.55736835487436 6.0 0.0 0.0 0.0 0.0 5 5 2 19.9609375
262 2 14.5 12.55736835487436 6.0 0.0 0.0 0.0 0.0 5 5 2 22.7734375
263 1 15.224999999999998 13.813105190361794 6.0 0.0 0.0 0.0 0.0 5 5 2 19.9609375
264 2 16.675 13.813105190361794 6.0 0.0 0.0 0.0 0.0 6 5 2 22.7734375
265 1 13.049999999999999 15.06884202584923 6.0 0.0 0.0 0.0 0.0 5 5 2 19.9609375
266 2 14.5 15.06884202584923 6.0 0.0 0.0 0.0 0.0 5 5 2 22.7734375
267 1 15.224999999999998 16.324578861336665 6.0 0.0 0.0 0.0 0.0 5 6 2 19.9609375
268 2 16.675 16.324578861336665 6.0 0.0 0.0 0.0 0.0 6 6 2 22.7734375
269 1 13.049999999999999 17.5803156968241 6.0 0.0 0.0 0.0 0.0 5 6 2 19.9609375
270 2 14.5 17.5803156968241 6.0 0.0 0.0 0.0 0.0 5 6 2 22.7734375
271 1 15.224999999999998 18.836052532311538 6.0 0.0 0.0 0.0 0.0 5 6 2 19.9609375
272 2 16.675 18.836052532311538 6.0 0.0 0.0 0.0 0.0 6 6 2 22.7734375
273 1 13.049999999999999 20.091789367798974 6.0 0.0 0.0 0.0 0.0 5 7 2 19.9609375
274 2 14.5 20.091789367798974 6.0 0.0 0.0 0.0 0.0 5 7 2 22.7734375
275 1 15.224999999999998 21.34752620328641 6.0 0.0 0.0 0.0 0.0 5 7 2 19.9609375
276 2 16.675 21.34752620328641 6.0 0.0 0.0 0.0 0.0 6 7 2 22.7734375
277 1 13.049999999999999 22.603263038773846 6.0 0.0 0.0 0.0 0.0 5 8 2 19.9609375
278 2 14.5 22.603263038773846 6.0 0.0 0.0 0.0 0.0 5 8 2 22.7734375
279 1 15.224999999999998 23.858999874261283 6.0 0.0 0.0 0.0 0.0 5 8 2 19.9609375
280 2 16.675 23.858999874261283 6.0 0.0 0.0 0.0 0.0 6 8 2 22.7734375
281 1 13.049999999999999 25.11473670974872 6.0 0.0 0.0 0.0 0.0 5 9 2 19.9609375
282 2 14.5 25.11473670974872 6.0 0.0 0.0 0.0 0.0 5 9 2 22.7734375
283 1 15.224999999999998 26.370473545236152 6.0 0.0 0.0 0.0 0.0 5 9 2 19.9609375
284 2 16.675 26.370473545236152 6.0 0.0 0.0 0.0 0.0 6 9 2 22.7734375
285 1 13.049999999999999 27.626210380723588 6.0 0.0 0.0 0.0 0.0 5 9 2 19.9609375
286 2 14.5 27.626210380723588 6.0 0.0 0.0 0.0 0.0 5 9 2 22.7734375
287 1 15.224999999999998 28.881947216211024 6.0 0.0 0.0 0.0 0.0 5 10 2 19.9609375
288 2 16.675 28.881947216211024 6.0 0.0 0.0 0.0 0.0 6 10 2 22.7734375
289 1 13.049999999999999 30.13768405169846 6.0 0.0 0.0 0.0 0.0 5 10 2 19.9609375
290 2 14.5 30.13768405169846 6.0 0.0 0.0 0.0 0.0 5 10 2 22.7734375
291 1 15.224999999999998 31.393420887185897 6.0 0.0 0.0 0.0 0.0 5 11 2 19.9609375
292 2 16.675 31.393420887185897 6.0 0.0 0.0 0.0 0.0 6 11 2 22.7734375
293 1 13.049999999999999 32.64915772267333 6.0 0.0 0.0 0.0 0.0 5 11 2 19.9609375
294 2 14.5 32.64915772267333 6.0 0.0 0.0 0.0 0.0 5 11 2 22.7734375
295 1 15.224999999999998 33.90489455816077 6.0 0.0 0.0 0.0 0.0 5 11 2 19.9609375
296 2 16.675 33.90489455816077 6.0 0.0 0.0 0.0 0.0 6 11 2 22.7734375
297 1 13.049999999999999 35.1606313936482 6.0 0.0 0.0 0.0 0.0 5 12 2 19.9609375
298 2 14.5 35.1606313936482 6.0 0.0 0.0 0.0 0.0 5 12 2 22.7734375
299 1 15.224999999999998 36.41636822913564 6.0 0.0 0.0 0.0 0.0 5 12 2 19.9609375
300 2 16.675 36.41636822913564 6.0 0.0 0.0 0.0 0.0 6 12 2 22.7734375
301 1 13.049999999999999 37.672105064623075 6.0 0.0 0.0 0.0 0.0 5 12 2 19.9609375
302 2 14.5 37.672105064623075 6.0 0.0 0.0 0.0 0.0 5 12 2 22.7734375
303 1 15.224999999999998 38.927841900110515 6.0 0.0 0.0 0.0 0.0 5 13 2 19.9609375
304 2 16.675 38.927841900110515 6.0 0.0 0.0 0.0 0.0 6 13 2 22.7734375
305 1 13.049999999999999 40.18357873559795 6.0 0.0 0.0 0.0 0.0 5 13 2 19.9609375
306 2 14.5 40.18357873559795 6.0 0.0 0.0 0.0 0.0 5 13 2 22.7734375
307 1 15.224999999999998 41.43931557108538 6.0 0.0 0.0 0.0 0.0 5 14 2 19.9609375
308 2 16.675 41.43931557108538 6.0 0.0 0.0 0.0 0.0 6 14 2 22.7734375
309 1 13.049999999999999 42.69505240657282 6.0 0.0 0.0 0.0 0.0 5 14 2 19.9609375
310 2 14.5 42.69505240657282 6.0 0.0 0.0 0.0 0.0 5 14 2 22.7734375
311 1 15.224999999999998 43.95078924206025 6.0 0.0 0.0 0.0 0.0 5 14 2 19.9609375
312 2 16.675 43.95078924206025 6.0 0.0 0.0 0.0 0.0 6 14 2 22.7734375
313 1 13.049999999999999 45.20652607754769 6.0 0.0 0.0 0.0 0.0 5 15 2 19.9609375
314 2 14.5 45.20652607754769 6.0 0.0 0.0 0.0 0.0 5 15 2 22.7734375
315 1 15.224999999999998 46.462262913035126 6.0 0.0 0.0 0.0 0.0 5 15 2 19.9609375
316 2 16.675 46.462262913035126 6.0 0.0 0.0 0.0 0.0 6 15 2 22.7734375
317 1 13.049999999999999 47.717999748522566 6.0 0.0 0.0 0.0 0.0 5 16 2 19.9609375
318 2 14.5 47.717999748522566 6.0 0.0 0.0 0.0 0.0 5 16 2 22.7734375
319 1 15.224999999999998 48.97373658401 6.0 0.0 0.0 0.0 0.0 5 16 2 19.9609375
320 2 16.675 48.97373658401 6.0 0.0 0.0 0.0 0.0 6 16 2 22.7734375
321 1 17.4 0.0 6.0 0.0 0.0 0.0 0.0 6 1 2 19.9609375
322 2 18.849999999999998 0.0 6.0 0.0 0.0 0.0 0.0 7 1 2 22.7734375
323 1 19.575 1.2557368354874359 6.0 0.0 0.0 0.0 0.0 7 1 2 19.9609375
324 2 21.025 1.2557368354874359 6.0 0.0 0.0 0.0 0.0 7 1 2 22.7734375
325 1 17.4 2.5114736709748717 6.0 0.0 0.0 0.0 0.0 6 1 2 19.9609375
326 2 18.849999999999998 2.5114736709748717 6.0 0.0 0.0 0.0 0.0 7 1 2 22.7734375
327 1 19.575 3.7672105064623076 6.0 0.0 0.0 0.0 0.0 7 2 2 19.9609375
328 2 21.025 3.7672105064623076 6.0 0.0 0.0 0.0 0.0 7 2 2 22.7734375
329 1 17.4 5.0229473419497435 6.0 0.0 0.0 0.0 0.0 6 2 2 19.9609375
330 2 18.849999999999998 5.0229473419497435 6.0 0.0 0.0 0.0 0.0 7 2 2 22.7734375
331 1 19.575 6.27868417743718 6.0 0.0 0.0 0.0 0.0 7 3 2 19.9609375
332 2 21.025 6.27868417743718 6.0 0.0 0.0 0.0 0.0 7 3 2 22.7734375
333 1 17.4 7.534421012924615 6.0 0.0 0.0 0.0 0.0 6 3 2 19.9609375
334 2 18.849999999999998 7.534421012924615 6.0 0.0 0.0 0.0 0.0 7 3 2 22.7734375
335 1 19.575 8.79015784841205 6.0 0.0 0.0 0.0 0.0 7 3 2 19.9609375
336 2 21.025 8.79015784841205 6.0 0.0 0.0 0.0 0.0 7 3 2 22.7734375
337 1 17.4 10.045894683899487 6.0 0.0 0.0 0.0 0.0 6 4 2 19.9609375
338 2 18.849999999999998 10.045894683899487 6.0 0.0 0.0 0.0 0.0 7 4 2 22.7734375
339 1 19.575 11.301631519386923 6.0 0.0 0.0 0.0 0.0 7 4 2 19.9609375
340 2 21.025 11.301631519386923 6.0 0.0 0.0 0.0 0.0 7 4 2 22.7734375
341 1 17.4 12.55736835487436 6.0 0.0 0.0 0.0 0.0 6 5 2 19.9609375
342 2 18.849999999999998 12.55736835487436 6.0 0.0 0.0 0.0 0.0 7 5 2 22.7734375
343 1 19.575 13.813105190361794 6.0 0.0 0.0 0.0 0.0 7 5 2 19.9609375
344 2 21.025 13.813105190361794 6.0 0.0 0.0 0.0 0.0 7 5 2 22.7734375
345 1 17.4 15.06884202584923 6.0 0.0 0.0 0.0 0.0 6 5 2 19.9609375
346 2 18.849999999999998 15.06884202584923 6.0 0.0 0.0 0.0 0.0 7 5 2 22.7734375
347 1 19.575 16.324578861336665 6.0 0.0 0.0 0.0 0.0 7 6 2 19.9609375
348 2 21.025 16.324578861336665 6.0 0.0 0.0 0.0 0.0 7 6 2 22.7734375
349 1 17.4 17.5803156968241 6.0 0.0 0.0 0.0 0.0 6 6 2 19.9609375
350 2 18.849999999999998 17.5803156968241 6.0 0.0 0.0 0.0 0.0 7 6 2 22.7734375
351 1 19.575 18.836052532311538 6.0 0.0 0.0 0.0 0.0 7 6 2 19.9609375
352 2 21.025 18.836052532311538 6.0 0.0 0.0 0.0 0.0 7 6 2 22.7734375
353 1 17.4 20.091789367798974 6.0 0.0 0.0 0.0 0.0 6 7 2 19.9609375
354 2 18.849999999999998 20.091789367798974 6.0 0.0 0.0 0.0 0.0 7 7 2 22.7734375
355 1 19.575 21.34752620328641 6.0 0.0 0.0 0.0 0.0 7 7 2 19.9609375
356 2 21.025 21.34752620328641 6.0 0.0 0.0 0.0 0.0 7 7 2 22.7734375
357 1 17.4 22.603263038773846 6.0 0.0 0.0 0.0 0.0 6 8 2 19.9609375
358 2 18.849999999999998 22.603263038773846 6.0 0.0 0.0 0.0 0.0 7 8 2 22.7734375
359 1 19.575 23.858999874261283 6.0 0.0 0.0 0.0 0.0 7 8 2 19.9609375
360 2 21.025 23.858999874261283 6.0 0.0 0.0 0.0 0.0 7 8 2 22.7734375
361 1 17.4 25.11473670974872 6.0 0.0 0.0 0.0 0.0 6 9 2 19.9609375
362 2 18.849999999999998 25.11473670974872 6.0 0.0 0.0 0.0 0.0 7 9 2 22.7734375
363 1 19.575 26.370473545236152 6.0 0.0 0.0 0.0 0.0 7 9 2 19.9609375
364 2 21.025 26.370473545236152 6.0 0.0 0.0 0.0 0.0 7 9 2 22.7734375
365 1 17.4 27.626210380723588 6.0 0.0 0.0 0.0 0.0 6 9 2 19.9609375
366 2 18.849999999999998 27.626210380723588 6.0 0.0 0.0 0.0 0.0 7 9 2 22.7734375
367 1 19.575 28.881947216211024 6.0 0.0 0.0 0.0 0.0 7 10 2 19.9609375
368 2 21.025 28.881947216211024 6.0 0.0 0.0 0.0 0.0 7 10 2 22.7734375
369 1 17.4 30.13768405169846 6.0 0.0 0.0 0.0 0.0 6 10 2 19.9609375
370 2 18.849999999999998 30.13768405169846 6.0 0.0 0.0 0.0 0.0 7 10 2 22.7734375
371 1 19.575 31.393420887185897 6.0 0.0 0.0 0.0 0.0 7 11 2 19.9609375
372 2 21.025 31.393420887185897 6.0 0.0 0.0 0.0 0.0 7 11 2 22.7734375
373 1 17.4 32.64915772267333 6.0 0.0 0.0 0.0 0.0 6 11 2 19.9609375
374 2 18.849999999999998 32.64915772267333 6.0 0.0 0.0 0.0 0.0 7 11 2 22.7734375
375 1 19.575 33.90489455816077 6.0 0.0 0.0 0.0 0.0 7 11 2 19.9609375
376 2 21.025 33.90489455816077 6.0 0.0 0.0 0.0 0.0 7 11 2 22.7734375
377 1 17.4 35.1606313936482 6.0 0.0 0.0 0.0 0.0 6 12 2 19.9609375
378 2 18.849999999999998 35.1606313936482 6.0 0.0 0.0 0.0 0.0 7 12 2 22.7734375
379 1 19.575 36.41636822913564 6.0 0.0 0.0 0.0 0.0 7 12 2 19.9609375
380 2 21.025 36.41636822913564 6.0 0.0 0.0 0.0 0.0 7 12 2 22.7734375
381 1 17.4 37.672105064623075 6.0 0.0 0.0 0.0 0.0 6 12 2 19.9609375
382 2 18.849999999999998 37.672105064623075 6.0 0.0 0.0 0.0 0.0 7 12 2 22.7734375
383 1 19.575 38.927841900110515 6.0 0.0 0.0 0.0 0.0 7 13 2 19.9609375
384 2 21.025 38.927841900110515 6.0 0.0 0.0 0.0 0.0 7 13 2 22.7734375
385 1 17.4 40.18357873559795 6.0 0.0 0.0 0.0 0.0 6 13 2 19.9609375
386 2 18.849999999999998 40.18357873559795 6.0 0.0 0.0 0.0 0.0 7 13 2 22.7734375
387 1 19.575 41.43931557108538 6.0 0.0 0.0 0.0 0.0 7 14 2 19.9609375
388 2 21.025 41.43931557108538 6.0 0.0 0.0 0.0 0.0 7 14 2 22.7734375
389 1 17.4 42.69505240657282 6.0 0.0 0.0 0.0 0.0 6 14 2 19.9609375
390 2 18.849999999999998 42.69505240657282 6.0 0.0 0.0 0.0 0.0 7 14 2 22.7734375
391 1 19.575 43.95078924206025 6.0 0.0 0.0 0.0 0.0 7 14 2 19.9609375
392 2 21.025 43.95078924206025 6.0 0.0 0.0 0.0 0.0 7 14 2 22.7734375
393 1 17.4 45.20652607754769 6.0 0.0 0.0 0.0 0.0 6 15 2 19.9609375
394 2 18.849999999999998 45.20652607754769 6.0 0.0 0.0 0.0 0.0 7 15 2 22.7734375
395 1 19.575 46.462262913035126 6.0 0.0 0.0 0.0 0.0 7 15 2 19.9609375
396 2 21.025 46.462262913035126 6.0 0.0 0.0 0.0 0.0 7 15 2 22.7734375
397 1 17.4 47.717999748522566 6.0 0.0 0.0 0.0 0.0 6 16 2 19.9609375
398 2 18.849999999999998 47.717999748522566 6.0 0.0 0.0 0.0 0.0 7 16 2 22.7734375
399 1 19.575 48.97373658401 6.0 0.0 0.0 0.0 0.0 7 16 2 19.9609375
400 2 21.025 48.97373658401 6.0 0.0 0.0 0.0 0.0 7 16 2 22.7734375
401 1 21.75 0.0 6.0 0.0 0.0 0.0 0.0 8 1 2 19.9609375
402 2 23.199999999999996 0.0 6.0 0.0 0.0 0.0 0.0 8 1 2 22.7734375
403 1 23.924999999999997 1.2557368354874359 6.0 0.0 0.0 0.0 0.0 8 1 2 19.9609375
404 2 25.374999999999996 1.2557368354874359 6.0 0.0 0.0 0.0 0.0 9 1 2 22.7734375
405 1 21.75 2.5114736709748717 6.0 0.0 0.0 0.0 0.0 8 1 2 19.9609375
406 2 23.199999999999996 2.5114736709748717 6.0 0.0 0.0 0.0 0.0 8 1 2 22.7734375
407 1 23.924999999999997 3.7672105064623076 6.0 0.0 0.0 0.0 0.0 8 2 2 19.9609375
408 2 25.374999999999996 3.7672105064623076 6.0 0.0 0.0 0.0 0.0 9 2 2 22.7734375
409 1 21.75 5.0229473419497435 6.0 0.0 0.0 0.0 0.0 8 2 2 19.9609375
410 2 23.199999999999996 5.0229473419497435 6.0 0.0 0.0 0.0 0.0 8 2 2 22.7734375
411 1 23.924999999999997 6.27868417743718 6.0 0.0 0.0 0.0 0.0 8 3 2 19.9609375
412 2 25.374999999999996 6.27868417743718 6.0 0.0 0.0 0.0 0.0 9 3 2 22.7734375
413 1 21.75 7.534421012924615 6.0 0.0 0.0 0.0 0.0 8 3 2 19.9609375
414 2 23.199999999999996 7.534421012924615 6.0 0.0 0.0 0.0 0.0 8 3 2 22.7734375
415 1 23.924999999999997 8.79015784841205 6.0 0.0 0.0 0.0 0.0 8 3 2 19.9609375
416 2 25.374999999999996 8.79015784841205 6.0 0.0 0.0 0.0 0.0 9 3 2 22.7734375
417 1 21.75 10.045894683899487 6.0 0.0 0.0 0.0 0.0 8 4 2 19.9609375
418 2 23.199999999999996 10.045894683899487 6.0 0.0 0.0 0.0 0.0 8 4 2 22.7734375
419 1 23.924999999999997 11.301631519386923 6.0 0.0 0.0 0.0 0.0 8 4 2 19.9609375