ITEM: TIMESTEP
1
ITEM: NUMBER OF ATOMS
800
ITEM: BOX BOUNDS pp pp ff 
0 41.9001
0 48.382068028144474
0 33.5
ITEM: ATOMS id type x y z vx vy vz energy cx cy cz
1 1 0.0 0.0 16.75 0.0 0.0 0.0 0.0 1 1 11
2 1 1.3966699999999999 0.0 16.75 0.0 0.0 0.0 0.0 1 1 11
3 1 2.095005 1.2095517007036118 16.75 0.0 0.0 0.0 0.0 2 1 11
4 1 3.4916750000000003 1.2095517007036118 16.75 0.0 0.0 0.0 0.0 3 1 11
5 1 0.0 2.4191034014072237 16.75 0.0 0.0 0.0 0.0 1 2 11
6 1 1.3966699999999999 2.4191034014072237 16.75 0.0 0.0 0.0 0.0 1 2 11
7 1 2.095005 3.6286551021108355 16.75 0.0 0.0 0.0 0.0 2 3 11
8 1 3.4916750000000003 3.6286551021108355 16.75 0.0 0.0 0.0 0.0 3 3 11
9 1 0.0 4.838206802814447 16.75 0.0 0.0 0.0 0.0 1 4 11
10 1 1.3966699999999999 4.838206802814447 16.75 0.0 0.0 0.0 0.0 1 4 11
11 1 2.095005 6.047758503518059 16.75 0.0 0.0 0.0 0.0 2 4 11
12 1 3.4916750000000003 6.047758503518059 16.75 0.0 0.0 0.0 0.0 3 4 11
13 1 0.0 7.257310204221671 16.75 0.0 0.0 0.0 0.0 1 5 11
14 1 1.3966699999999999 7.257310204221671 16.75 0.0 0.0 0.0 0.0 1 5 11
15 1 2.095005 8.466861904925283 16.75 0.0 0.0 0.0 0.0 2 6 11
16 1 3.4916750000000003 8.466861904925283 16.75 0.0 0.0 0.0 0.0 3 6 11
17 1 0.0 9.676413605628895 16.75 0.0 0.0 0.0 0.0 1 7 11
18 1 1.3966699999999999 9.676413605628895 16.75 0.0 0.0 0.0 0.0 1 7 11
19 1 2.095005 10.885965306332507 16.75 0.0 0.0 0.0 0.0 2 7 11
20 1 3.4916750000000003 10.885965306332507 16.75 0.0 0.0 0.0 0.0 3 7 11
21 1 0.0 12.095517007036118 16.75 0.0 0.0 0.0 0.0 1 8 11
22 1 1.3966699999999999 12.095517007036118 16.75 0.0 0.0 0.0 0.0 1 8 11
23 1 2.095005 13.30506870773973 16.75 0.0 0.0 0.0 0.0 2 9 11
24 1 3.4916750000000003 13.30506870773973 16.75 0.0 0.0 0.0 0.0 3 9 11
25 1 0.0 14.514620408443342 16.75 0.0 0.0 0.0 0.0 1 10 11
26 1 1.3966699999999999 14.514620408443342 16.75 0.0 0.0 0.0 0.0 1 10 11
27 1 2.095005 15.724172109146954 16.75 0.0 0.0 0.0 0.0 2 11 11
28 1 3.4916750000000003 15.724172109146954 16.75 0.0 0.0 0.0 0.0 3 11 11
29 1 0.0 16.933723809850566 16.75 0.0 0.0 0.0 0.0 1 11 11
30 1 1.3966699999999999 16.933723809850566 16.75 0.0 0.0 0.0 0.0 1 11 11
31 1 2.095005 18.143275510554176 16.75 0.0 0.0 0.0 0.0 2 12 11
32 1 3.4916750000000003 18.143275510554176 16.75 0.0 0.0 0.0 0.0 3 12 11
33 1 0.0 19.35282721125779 16.75 0.0 0.0 0.0 0.0 1 13 11
34 1 1.3966699999999999 19.35282721125779 16.75 0.0 0.0 0.0 0.0 1 13 11
35 1 2.095005 20.562378911961403 16.75 0.0 0.0 0.0 0.0 2 14 11
36 1 3.4916750000000003 20.562378911961403 16.75 0.0 0.0 0.0 0.0 3 14 11
37 1 0.0 21.771930612665013 16.75 0.0 0.0 0.0 0.0 1 14 11
38 1 1.3966699999999999 21.771930612665013 16.75 0.0 0.0 0.0 0.0 1 14 11
39 1 2.095005 22.981482313368623 16.75 0.0 0.0 0.0 0.0 2 15 11
40 1 3.4916750000000003 22.981482313368623 16.75 0.0 0.0 0.0 0.0 3 15 11
41 1 0.0 24.191034014072237 16.75 0.0 0.0 0.0 0.0 1 16 11
42 1 1.3966699999999999 24.191034014072237 16.75 0.0 0.0 0.0 0.0 1 16 11
43 1 2.095005 25.40058571477585 16.75 0.0 0.0 0.0 0.0 2 17 11
44 1 3.4916750000000003 25.40058571477585 16.75 0.0 0.0 0.0 0.0 3 17 11
45 1 0.0 26.61013741547946 16.75 0.0 0.0 0.0 0.0 1 18 11
46 1 1.3966699999999999 26.61013741547946 16.75 0.0 0.0 0.0 0.0 1 18 11
47 1 2.095005 27.81968911618307 16.75 0.0 0.0 0.0 0.0 2 18 11
48 1 3.4916750000000003 27.81968911618307 16.75 0.0 0.0 0.0 0.0 3 18 11
49 1 0.0 29.029240816886684 16.75 0.0 0.0 0.0 0.0 1 19 11
50 1 1.3966699999999999 29.029240816886684 16.75 0.0 0.0 0.0 0.0 1 19 11
51 1 2.095005 30.238792517590298 16.75 0.0 0.0 0.0 0.0 2 20 11
52 1 3.4916750000000003 30.238792517590298 16.75 0.0 0.0 0.0 0.0 3 20 11
53 1 0.0 31.448344218293908 16.75 0.0 0.0 0.0 0.0 1 21 11
54 1 1.3966699999999999 31.448344218293908 16.75 0.0 0.0 0.0 0.0 1 21 11
55 1 2.095005 32.65789591899752 16.75 0.0 0.0 0.0 0.0 2 21 11
56 1 3.4916750000000003 32.65789591899752 16.75 0.0 0.0 0.0 0.0 3 21 11
57 1 0.0 33.86744761970113 16.75 0.0 0.0 0.0 0.0 1 22 11
58 1 1.3966699999999999 33.86744761970113 16.75 0.0 0.0 0.0 0.0 1 22 11
59 1 2.095005 35.076999320404745 16.75 0.0 0.0 0.0 0.0 2 23 11
60 1 3.4916750000000003 35.076999320404745 16.75 0.0 0.0 0.0 0.0 3 23 11
61 1 0.0 36.28655102110835 16.75 0.0 0.0 0.0 0.0 1 24 11
62 1 1.3966699999999999 36.28655102110835 16.75 0.0 0.0 0.0 0.0 1 24 11
63 1 2.095005 37.496102721811965 16.75 0.0 0.0 0.0 0.0 2 25 11
64 1 3.4916750000000003 37.496102721811965 16.75 0.0 0.0 0.0 0.0 3 25 11
65 1 0.0 38.70565442251558 16.75 0.0 0.0 0.0 0.0 1 25 11
66 1 1.3966699999999999 38.70565442251558 16.75 0.0 0.0 0.0 0.0 1 25 11
67 1 2.095005 39.91520612321919 16.75 0.0 0.0 0.0 0.0 2 26 11
68 1 3.4916750000000003 39.91520612321919 16.75 0.0 0.0 0.0 0.0 3 26 11
69 1 0.0 41.124757823922806 16.75 0.0 0.0 0.0 0.0 1 27 11
70 1 1.3966699999999999 41.124757823922806 16.75 0.0 0.0 0.0 0.0 1 27 11
71 1 2.095005 42.33430952462641 16.75 0.0 0.0 0.0 0.0 2 28 11
72 1 3.4916750000000003 42.33430952462641 16.75 0.0 0.0 0.0 0.0 3 28 11
73 1 0.0 43.543861225330026 16.75 0.0 0.0 0.0 0.0 1 28 11
74 1 1.3966699999999999 43.543861225330026 16.75 0.0 0.0 0.0 0.0 1 28 11
75 1 2.095005 44.75341292603364 16.75 0.0 0.0 0.0 0.0 2 29 11
76 1 3.4916750000000003 44.75341292603364 16.75 0.0 0.0 0.0 0.0 3 29 11
77 1 0.0 45.96296462673725 16.75 0.0 0.0 0.0 0.0 1 30 11
78 1 1.3966699999999999 45.96296462673725 16.75 0.0 0.0 0.0 0.0 1 30 11
79 1 2.095005 47.17251632744086 16.75 0.0 0.0 0.0 0.0 2 31 11
80 1 3.4916750000000003 47.17251632744086 16.75 0.0 0.0 0.0 0.0 3 31 11
81 1 4.19001 0.0 16.75 0.0 0.0 0.0 0.0 3 1 11
82 1 5.586679999999999 0.0 16.75 0.0 0.0 0.0 0.0 4 1 11
83 1 6.285015 1.2095517007036118 16.75 0.0 0.0 0.0 0.0 5 1 11
84 1 7.681685000000001 1.2095517007036118 16.75 0.0 0.0 0.0 0.0 5 1 11
85 1 4.19001 2.4191034014072237 16.75 0.0 0.0 0.0 0.0 3 2 11
86 1 5.586679999999999 2.4191034014072237 16.75 0.0 0.0 0.0 0.0 4 2 11
87 1 6.285015 3.6286551021108355 16.75 0.0 0.0 0.0 0.0 5 3 11
88 1 7.681685000000001 3.6286551021108355 16.75 0.0 0.0 0.0 0.0 5 3 11
89 1 4.19001 4.838206802814447 16.75 0.0 0.0 0.0 0.0 3 4 11
90 1 5.586679999999999 4.838206802814447 16.75 0.0 0.0 0.0 0.0 4 4 11
91 1 6.285015 6.047758503518059 16.75 0.0 0.0 0.0 0.0 5 4 11
92 1 7.681685000000001 6.047758503518059 16.75 0.0 0.0 0.0 0.0 5 4 11
93 1 4.19001 7.257310204221671 16.75 0.0 0.0 0.0 0.0 3 5 11
94 1 5.586679999999999 7.257310204221671 16.75 0.0 0.0 0.0 0.0 4 5 11
95 1 6.285015 8.466861904925283 16.75 0.0 0.0 0.0 0.0 5 6 11
96 1 7.681685000000001 8.466861904925283 16.75 0.0 0.0 0.0 0.0 5 6 11
97 1 4.19001 9.676413605628895 16.75 0.0 0.0 0.0 0.0 3 7 11
98 1 5.586679999999999 9.676413605628895 16.75 0.0 0.0 0.0 0.0 4 7 11
99 1 6.285015 10.885965306332507 16.75 0.0 0.0 0.0 0.0 5 7 11
100 1 7.681685000000001 10.885965306332507 16.75 0.0 0.0 0.0 0.0 5 7 11
101 1 4.19001 12.095517007036118 16.75 0.0 0.0 0.0 0.0 3 8 11
102 1 5.586679999999999 12.095517007036118 16.75 0.0 0.0 0.0 0.0 4 8 11
103 1 6.285015 13.30506870773973 16.75 0.0 0.0 0.0 0.0 5 9 11
104 1 7.681685000000001 13.30506870773973 16.75 0.0 0.0 0.0 0.0 5 9 11
105 1 4.19001 14.514620408443342 16.75 0.0 0.0 0.0 0.0 3 10 11
106 1 5.586679999999999 14.514620408443342 16.75 0.0 0.0 0.0 0.0 4 10 11
107 1 6.285015 15.724172109146954 16.75 0.0 0.0 0.0 0.0 5 11 11
108 1 7.681685000000001 15.724172109146954 16.75 0.0 0.0 0.0 0.0 5 11 11
109 1 4.19001 16.933723809850566 16.75 0.0 0.0 0.0 0.0 3 11 11
110 1 5.586679999999999 16.933723809850566 16.75 0.0 0.0 0.0 0.0 4 11 11
111 1 6.285015 18.143275510554176 16.75 0.0 0.0 0.0 0.0 5 12 11
112 1 7.681685000000001 18.143275510554176 16.75 0.0 0.0 0.0 0.0 5 12 11
113 1 4.19001 19.35282721125779 16.75 0.0 0.0 0.0 0.0 3 13 11
114 1 5.586679999999999 19.35282721125779 16.75 0.0 0.0 0.0 0.0 4 13 11
115 1 6.285015 20.562378911961403 16.75 0.0 0.0 0.0 0.0 5 14 11
116 1 7.681685000000001 20.562378911961403 16.75 0.0 0.0 0.0 0.0 5 14 11
117 1 4.19001 21.771930612665013 16.75 0.0 0.0 0.0 0.0 3 14 11
118 1 5.586679999999999 21.771930612665013 16.75 0.0 0.0 0.0 0.0 4 14 11
119 1 6.285015 22.981482313368623 16.75 0.0 0.0 0.0 0.0 5 15 11
120 1 7.681685000000001 22.981482313368623 16.75 0.0 0.0 0.0 0.0 5 15 11
121 1 4.19001 24.191034014072237 16.75 0.0 0.0 0.0 0.0 3 16 11
122 1 5.586679999999999 24.191034014072237 16.75 0.0 0.0 0.0 0.0 4 16 11
123 1 6.285015 25.40058571477585 16.75 0.0 0.0 0.0 0.0 5 17 11
124 1 7.681685000000001 25.40058571477585 16.75 0.0 0.0 0.0 0.0 5 17 11
125 1 4.19001 26.61013741547946 16.75 0.0 0.0 0.0 0.0 3 18 11
126 1 5.586679999999999 26.61013741547946 16.75 0.0 0.0 0.0 0.0 4 18 11
127 1 6.285015 27.81968911618307 16.75 0.0 0.0 0.0 0.0 5 18 11
128 1 7.681685000000001 27.81968911618307 16.75 0.0 0.0 0.0 0.0 5 18 11
129 1 4.19001 29.029240816886684 16.75 0.0 0.0 0.0 0.0 3 19 11
130 1 5.586679999999999 29.029240816886684 16.75 0.0 0.0 0.0 0.0 4 19 11
131 1 6.285015 30.238792517590298 16.75 0.0 0.0 0.0 0.0 5 20 11
132 1 7.681685000000001 30.238792517590298 16.75 0.0 0.0 0.0 0.0 5 20 11
133 1 4.19001 31.448344218293908 16.75 0.0 0.0 0.0 0.0 3 21 11
134 1 5.586679999999999 31.448344218293908 16.75 0.0 0.0 0.0 0.0 4 21 11
135 1 6.285015 32.65789591899752 16.75 0.0 0.0 0.0 0.0 5 21 11
136 1 7.681685000000001 32.65789591899752 16.75 0.0 0.0 0.0 0.0 5 21 11
137 1 4.19001 33.86744761970113 16.75 0.0 0.0 0.0 0.0 3 22 11
138 1 5.586679999999999 33.86744761970113 16.75 0.0 0.0 0.0 0.0 4 22 11
139 1 6.285015 35.076999320404745 16.75 0.0 0.0 0.0 0.0 5 23 11
140 1 7.681685000000001 35.076999320404745 16.75 0.0 0.0 0.0 0.0 5 23 11
141 1 4.19001 36.28655102110835 16.75 0.0 0.0 0.0 0.0 3 24 11
142 1 5.586679999999999 36.28655102110835 16.75 0.0 0.0 0.0 0.0 4 24 11
143 1 6.285015 37.496102721811965 16.75 0.0 0.0 0.0 0.0 5 25 11
144 1 7.681685000000001 37.496102721811965 16.75 0.0 0.0 0.0 0.0 5 25 11
145 1 4.19001 38.70565442251558 16.75 0.0 0.0 0.0 0.0 3 25 11
146 1 5.586679999999999 38.70565442251558 16.75 0.0 0.0 0.0 0.0 4 25 11
147 1 6.285015 39.91520612321919 16.75 0.0 0.0 0.0 0.0 5 26 11
148 1 7.681685000000001 39.91520612321919 16.75 0.0 0.0 0.0 0.0 5 26 11
149 1 4.19001 41.124757823922806 16.75 0.0 0.0 0.0 0.0 3 27 11
150 1 5.586679999999999 41.124757823922806 16.75 0.0 0.0 0.0 0.0 4 27 11
151 1 6.285015 42.33430952462641 16.75 0.0 0.0 0.0 0.0 5 28 11
152 1 7.681685000000001 42.33430952462641 16.75 0.0 0.0 0.0 0.0 5 28 11
153 1 4.19001 43.543861225330026 16.75 0.0 0.0 0.0 0.0 3 28 11
154 1 5.586679999999999 43.543861225330026 16.75 0.0 0.0 0.0 0.0 4 28 11
155 1 6.285015 44.75341292603364 16.75 0.0 0.0 0.0 0.0 5 29 11
156 1 7.681685000000001 44.75341292603364 16.75 0.0 0.0 0.0 0.0 5 29 11
157 1 4.19001 45.96296462673725 16.75 0.0 0.0 0.0 0.0 3 30 11
158 1 5.586679999999999 45.96296462673725 16.75 0.0 0.0 0.0 0.0 4 30 11
159 1 6.285015 47.17251632744086 16.75 0.0 0.0 0.0 0.0 5 31 11
160 1 7.681685000000001 47.17251632744086 16.75 0.0 0.0 0.0 0.0 5 31 11
161 1 8.38002 0.0 16.75 0.0 0.0 0.0 0.0 6 1 11
162 1 9.77669 0.0 16.75 0.0 0.0 0.0 0.0 7 1 11
163 1 10.475025 1.2095517007036118 16.75 0.0 0.0 0.0 0.0 7 1 11
164 1 11.871695 1.2095517007036118 16.75 0.0 0.0 0.0 0.0 8 1 11
165 1 8.38002 2.4191034014072237 16.75 0.0 0.0 0.0 0.0 6 2 11
166 1 9.77669 2.4191034014072237 16.75 0.0 0.0 0.0 0.0 7 2 11
167 1 10.475025 3.6286551021108355 16.75 0.0 0.0 0.0 0.0 7 3 11
168 1 11.871695 3.6286551021108355 16.75 0.0 0.0 0.0 0.0 8 3 11
169 1 8.38002 4.838206802814447 16.75 0.0 0.0 0.0 0.0 6 4 11
170 1 9.77669 4.838206802814447 16.75 0.0 0.0 0.0 0.0 7 4 11
171 1 10.475025 6.047758503518059 16.75 0.0 0.0 0.0 0.0 7 4 11
172 1 11.871695 6.047758503518059 16.75 0.0 0.0 0.0 0.0 8 4 11
173 1 8.38002 7.257310204221671 16.75 0.0 0.0 0.0 0.0 6 5 11
174 1 9.77669 7.257310204221671 16.75 0.0 0.0 0.0 0.0 7 5 11
175 1 10.475025 8.466861904925283 16.75 0.0 0.0 0.0 0.0 7 6 11
176 1 11.871695 8.466861904925283 16.75 0.0 0.0 0.0 0.0 8 6 11
177 1 8.38002 9.676413605628895 16.75 0.0 0.0 0.0 0.0 6 7 11
178 1 9.77669 9.676413605628895 16.75 0.0 0.0 0.0 0.0 7 7 11
179 1 10.475025 10.885965306332507 16.75 0.0 0.0 0.0 0.0 7 7 11
180 1 11.871695 10.885965306332507 16.75 0.0 0.0 0.0 0.0 8 7 11
181 1 8.38002 12.095517007036118 16.75 0.0 0.0 0.0 0.0 6 8 11
182 1 9.77669 12.095517007036118 16.75 0.0 0.0 0.0 0.0 7 8 11
183 1 10.475025 13.30506870773973 16.75 0.0 0.0 0.0 0.0 7 9 11
184 1 11.871695 13.30506870773973 16.75 0.0 0.0 0.0 0.0 8 9 11
185 1 8.38002 14.514620408443342 16.75 0.0 0.0 0.0 0.0 6 10 11
186 1 9.77669 14.514620408443342 16.75 0.0 0.0 0.0 0.0 7 10 11
187 1 10.475025 15.724172109146954 16.75 0.0 0.0 0.0 0.0 7 11 11
188 1 11.871695 15.724172109146954 16.75 0.0 0.0 0.0 0.0 8 11 11
189 1 8.38002 16.933723809850566 16.75 0.0 0.0 0.0 0.0 6 11 11
190 1 9.77669 16.933723809850566 16.75 0.0 0.0 0.0 0.0 7 11 11
191 1 10.475025 18.143275510554176 16.75 0.0 0.0 0.0 0.0 7 12 11
192 1 11.871695 18.143275510554176 16.75 0.0 0.0 0.0 0.0 8 12 11
193 1 8.38002 19.35282721125779 16.75 0.0 0.0 0.0 0.0 6 13 11
194 1 9.77669 19.35282721125779 16.75 0.0 0.0 0.0 0.0 7 13 11
195 1 10.475025 20.562378911961403 16.75 0.0 0.0 0.0 0.0 7 14 11
196 1 11.871695 20.562378911961403 16.75 0.0 0.0 0.0 0.0 8 14 11
197 1 8.38002 21.771930612665013 16.75 0.0 0.0 0.0 0.0 6 14 11
198 1 9.77669 21.771930612665013 16.75 0.0 0.0 0.0 0.0 7 14 11
199 1 10.475025 22.981482313368623 16.75 0.0 0.0 0.0 0.0 7 15 11
200 1 11.871695 22.981482313368623 16.75 0.0 0.0 0.0 0.0 8 15 11
201 1 8.38002 24.191034014072237 16.75 0.0 0.0 0.0 0.0 6 16 11
202 1 9.77669 24.191034014072237 16.75 0.0 0.0 0.0 0.0 7 16 11
203 1 10.475025 25.40058571477585 16.75 0.0 0.0 0.0 0.0 7 17 11
204 1 11.871695 25.40058571477585 16.75 0.0 0.0 0.0 0.0 8 17 11
205 1 8.38002 26.61013741547946 16.75 0.0 0.0 0.0 0.0 6 18 11
206 1 9.77669 26.61013741547946 16.75 0.0 0.0 0.0 0.0 7 18 11
207 1 10.475025 27.81968911618307 16.75 0.0 0.0 0.0 0.0 7 18 11
208 1 11.871695 27.81968911618307 16.75 0.0 0.0 0.0 0.0 8 18 11
209 1 8.38002 29.029240816886684 16.75 0.0 0.0 0.0 0.0 6 19 11
210 1 9.77669 29.029240816886684 16.75 0.0 0.0 0.0 0.0 7 19 11
211 1 10.475025 30.238792517590298 16.75 0.0 0.0 0.0 0.0 7 20 11
212 1 11.871695 30.238792517590298 16.75 0.0 0.0 0.0 0.0 8 20 11
213 1 8.38002 31.448344218293908 16.75 0.0 0.0 0.0 0.0 6 21 11
214 1 9.77669 31.448344218293908 16.75 0.0 0.0 0.0 0.0 7 21 11
215 1 10.475025 32.65789591899752 16.75 0.0 0.0 0.0 0.0 7 21 11
216 1 11.871695 32.65789591899752 16.75 0.0 0.0 0.0 0.0 8 21 11
217 1 8.38002 33.86744761970113 16.75 0.0 0.0 0.0 0.0 6 22 11
218 1 9.77669 33.86744761970113 16.75 0.0 0.0 0.0 0.0 7 22 11
219 1 10.475025 35.076999320404745 16.75 0.0 0.0 0.0 0.0 7 23 11
220 1 11.871695 35.076999320404745 16.75 0.0 0.0 0.0 0.0 8 23 11
221 1 8.38002 36.28655102110835 16.75 0.0 0.0 0.0 0.0 6 24 11
222 1 9.77669 36.28655102110835 16.75 0.0 0.0 0.0 0.0 7 24 11
223 1 10.475025 37.496102721811965 16.75 0.0 0.0 0.0 0.0 7 25 11
224 1 11.871695 37.496102721811965 16.75 0.0 0.0 0.0 0.0 8 25 11
225 1 8.38002 38.70565442251558 16.75 0.0 0.0 0.0 0.0 6 25 11
226 1 9.77669 38.70565442251558 16.75 0.0 0.0 0.0 0.0 7 25 11
227 1 10.475025 39.91520612321919 16.75 0.0 0.0 0.0 0.0 7 26 11
228 1 11.871695 39.91520612321919 16.75 0.0 0.0 0.0 0.0 8 26 11
229 1 8.38002 41.124757823922806 16.75 0.0 0.0 0.0 0.0 6 27 11
230 1 9.77669 41.124757823922806 16.75 0.0 0.0 0.0 0.0 7 27 11
231 1 10.475025 42.33430952462641 16.75 0.0 0.0 0.0 0.0 7 28 11
232 1 11.871695 42.33430952462641 16.75 0.0 0.0 0.0 0.0 8 28 11
233 1 8.38002 43.543861225330026 16.75 0.0 0.0 0.0 0.0 6 28 11
234 1 9.77669 43.543861225330026 16.75 0.0 0.0 0.0 0.0 7 28 11
235 1 10.475025 44.75341292603364 16.75 0.0 0.0 0.0 0.0 7 29 11
236 1 11.871695 44.75341292603364 16.75 0.0 0.0 0.0 0.0 8 29 11
237 1 8.38002 45.96296462673725 16.75 0.0 0.0 0.0 0.0 6 30 11
238 1 9.77669 45.96296462673725 16.75 0.0 0.0 0.0 0.0 7 30 11
239 1 10.475025 47.17251632744086 16.75 0.0 0.0 0.0 0.0 7 31 11
240 1 11.871695 47.17251632744086 16.75 0.0 0.0 0.0 0.0 8 31 11
241 1 12.57003 0.0 16.75 0.0 0.0 0.0 0.0 9 1 11
242 1 13.966700000000001 0.0 16.75 0.0 0.0 0.0 0.0 10 1 11
243 1 14.665035 1.2095517007036118 16.75 0.0 0.0 0.0 0.0 10 1 11
244 1 16.061705 1.2095517007036118 16.75 0.0 0.0 0.0 0.0 11 1 11
245 1 12.57003 2.4191034014072237 16.75 0.0 0.0 0.0 0.0 9 2 11
246 1 13.966700000000001 2.4191034014072237 16.75 0.0 0.0 0.0 0.0 10 2 11
247 1 14.665035 3.6286551021108355 16.75 0.0 0.0 0.0 0.0 10 3 11
248 1 16.061705 3.6286551021108355 16.75 0.0 0.0 0.0 0.0 11 3 11
249 1 12.57003 4.838206802814447 16.75 0.0 0.0 0.0 0.0 9 4 11
250 1 13.966700000000001 4.838206802814447 16.75 0.0 0.0 0.0 0.0 10 4 11
251 1 14.665035 6.047758503518059 16.75 0.0 0.0 0.0 0.0 10 4 11
252 1 16.061705 6.047758503518059 16.75 0.0 0.0 0.0 0.0 11 4 11
253 1 12.57003 7.257310204221671 16.75 0.0 0.0 0.0 0.0 9 5 11
254 1 13.966700000000001 7.257310204221671 16.75 0.0 0.0 0.0 0.0 10 5 11
255 1 14.665035 8.466861904925283 16.75 0.0 0.0 0.0 0.0 10 6 11
256 1 16.061705 8.466861904925283 16.75 0.0 0.0 0.0 0.0 11 6 11
257 1 12.57003 9.676413605628895 16.75 0.0 0.0 0.0 0.0 9 7 11
258 1 13.966700000000001 9.676413605628895 16.75 0.0 0.0 0.0 0.0 10 7 11
259 1 14.665035 10.885965306332507 16.75 0.0 0.0 0.0 0.0 10 7 11
260 1 16.061705 10.885965306332507 16.75 0.0 0.0 0.0 0.0 11 7 11
261 1 12.57003 12.095517007036118 16.75 0.0 0.0 0.0 0.0 9 8 11
262 1 13.966700000000001 12.095517007036118 16.75 0.0 0.0 0.0 0.0 10 8 11
263 1 14.665035 13.30506870773973 16.75 0.0 0.0 0.0 0.0 10 9 11
264 1 16.061705 13.30506870773973 16.75 0.0 0.0 0.0 0.0 11 9 11
265 1 12.57003 14.514620408443342 16.75 0.0 0.0 0.0 0.0 9 10 11
266 1 13.966700000000001 14.514620408443342 16.75 0.0 0.0 0.0 0.0 10 10 11
267 1 14.665035 15.724172109146954 16.75 0.0 0.0 0.0 0.0 10 11 11
268 1 16.061705 15.724172109146954 16.75 0.0 0.0 0.0 0.0 11 11 11
269 1 12.57003 16.933723809850566 16.75 0.0 0.0 0.0 0.0 9 11 11
270 1 13.966700000000001 16.933723809850566 16.75 0.0 0.0 0.0 0.0 10 11 11
271 1 14.665035 18.143275510554176 16.75 0.0 0.0 0.0 0.0 10 12 11
272 1 16.061705 18.143275510554176 16.75 0.0 0.0 0.0 0.0 11 12 11
273 1 12.57003 19.35282721125779 16.75 0.0 0.0 0.0 0.0 9 13 11
274 1 13.966700000000001 19.35282721125779 16.75 0.0 0.0 0.0 0.0 10 13 11
275 1 14.665035 20.562378911961403 16.75 0.0 0.0 0.0 0.0 10 14 11
276 1 16.061705 20.562378911961403 16.75 0.0 0.0 0.0 0.0 11 14 11
277 1 12.57003 21.771930612665013 16.75 0.0 0.0 0.0 0.0 9 14 11
278 1 13.966700000000001 21.771930612665013 16.75 0.0 0.0 0.0 0.0 10 14 11
279 1 14.665035 22.981482313368623 16.75 0.0 0.0 0.0 0.0 10 15 11
280 1 16.061705 22.981482313368623 16.75 0.0 0.0 0.0 0.0 11 15 11
281 1 12.57003 24.191034014072237 16.75 0.0 0.0 0.0 0.0 9 16 11
282 1 13.966700000000001 24.191034014072237 16.75 0.0 0.0 0.0 0.0 10 16 11
283 1 14.665035 25.40058571477585 16.75 0.0 0.0 0.0 0.0 10 17 11
284 1 16.061705 25.40058571477585 16.75 0.0 0.0 0.0 0.0 11 17 11
285 1 12.57003 26.61013741547946 16.75 0.0 0.0 0.0 0.0 9 18 11
286 1 13.966700000000001 26.61013741547946 16.75 0.0 0.0 0.0 0.0 10 18 11
287 1 14.665035 27.81968911618307 16.75 0.0 0.0 0.0 0.0 10 18 11
288 1 16.061705 27.81968911618307 16.75 0.0 0.0 0.0 0.0 11 18 11
289 1 12.57003 29.029240816886684 16.75 0.0 0.0 0.0 0.0 9 19 11
290 1 13.966700000000001 29.029240816886684 16.75 0.0 0.0 0.0 0.0 10 19 11
291 1 14.665035 30.238792517590298 16.75 0.0 0.0 0.0 0.0 10 20 11
292 1 16.061705 30.238792517590298 16.75 0.0 0.0 0.0 0.0 11 20 11
293 1 12.57003 31.448344218293908 16.75 0.0 0.0 0.0 0.0 9 21 11
294 1 13.966700000000001 31.448344218293908 16.75 0.0 0.0 0.0 0.0 10 21 11
295 1 14.665035 32.65789591899752 16.75 0.0 0.0 0.0 0.0 10 21 11
296 1 16.061705 32.65789591899752 16.75 0.0 0.0 0.0 0.0 11 21 11
297 1 12.57003 33.86744761970113 16.75 0.0 0.0 0.0 0.0 9 22 11
298 1 13.966700000000001 33.86744761970113 16.75 0.0 0.0 0.0 0.0 10 22 11
299 1 14.665035 35.076999320404745 16.75 0.0 0.0 0.0 0.0 10 23 11
300 1 16.061705 35.076999320404745 16.75 0.0 0.0 0.0 0.0 11 23 11
301 1 12.57003 36.28655102110835 16.75 0.0 0.0 0.0 0.0 9 24 11
302 1 13.966700000000001 36.28655102110835 16.75 0.0 0.0 0.0 0.0 10 24 11
303 1 14.665035 37.496102721811965 16.75 0.0 0.0 0.0 0.0 10 25 11
304 1 16.061705 37.496102721811965 16.75 0.0 0.0 0.0 0.0 11 25 11
305 1 12.57003 38.70565442251558 16.75 0.0 0.0 0.0 0.0 9 25 11
306 1 13.966700000000001 38.70565442251558 16.75 0.0 0.0 0.0 0.0 10 25 11
307 1 14.665035 39.91520612321919 16.75 0.0 0.0 0.0 0.0 10 26 11
308 1 16.061705 39.91520612321919 16.75 0.0 0.0 0.0 0.0 11 26 11
309 1 12.57003 41.124757823922806 16.75 0.0 0.0 0.0 0.0 9 27 11
310 1 13.966700000000001 41.124757823922806 16.75 0.0 0.0 0.0 0.0 10 27 11
311 1 14.665035 42.33430952462641 16.75 0.0 0.0 0.0 0.0 10 28 11
312 1 16.061705 42.33430952462641 16.75 0.0 0.0 0.0 0.0 11 28 11
313 1 12.57003 43.543861225330026 16.75 0.0 0.0 0.0 0.0 9 28 11
314 1 13.966700000000001 43.543861225330026 16.75 0.0 0.0 0.0 0.0 10 28 11
315 1 14.665035 44.75341292603364 16.75 0.0 0.0 0.0 0.0 10 29 11
316 1 16.061705 44.75341292603364 16.75 0.0 0.0 0.0 0.0 11 29 11
317 1 12.57003 45.96296462673725 16.75 0.0 0.0 0.0 0.0 9 30 11
318 1 13.966700000000001 45.96296462673725 16.75 0.0 0.0 0.0 0.0 10 30 11
319 1 14.665035 47.17251632744086 16.75 0.0 0.0 0.0 0.0 10 31 11
320 1 16.061705 47.17251632744086 16.75 0.0 0.0 0.0 0.0 11 31 11
321 1 16.76004 0.0 16.75 0.0 0.0 0.0 0.0 11 1 11
322 1 18.15671 0.0 16.75 0.0 0.0 0.0 0.0 12 1 11
323 1 18.855045 1.2095517007036118 16.75 0.0 0.0 0.0 0.0 13 1 11
324 1 20.251714999999997 1.2095517007036118 16.75 0.0 0.0 0.0 0.0 14 1 11
325 1 16.76004 2.4191034014072237 16.75 0.0 0.0 0.0 0.0 11 2 11
326 1 18.15671 2.4191034014072237 16.75 0.0 0.0 0.0 0.0 12 2 11
327 1 18.855045 3.6286551021108355 16.75 0.0 0.0 0.0 0.0 13 3 11
328 1 20.251714999999997 3.6286551021108355 16.75 0.0 0.0 0.0 0.0 14 3 11
329 1 16.76004 4.838206802814447 16.75 0.0 0.0 0.0 0.0 11 4 11
330 1 18.15671 4.838206802814447 16.75 0.0 0.0 0.0 0.0 12 4 11
331 1 18.855045 6.047758503518059 16.75 0.0 0.0 0.0 0.0 13 4 11
332 1 20.251714999999997 6.047758503518059 16.75 0.0 0.0 0.0 0.0 14 4 11
333 1 16.76004 7.257310204221671 16.75 0.0 0.0 0.0 0.0 11 5 11
334 1 18.15671 7.257310204221671 16.75 0.0 0.0 0.0 0.0 12 5 11
335 1 18.855045 8.466861904925283 16.75 0.0 0.0 0.0 0.0 13 6 11
336 1 20.251714999999997 8.466861904925283 16.75 0.0 0.0 0.0 0.0 14 6 11
337 1 16.76004 9.676413605628895 16.75 0.0 0.0 0.0 0.0 11 7 11
338 1 18.15671 9.676413605628895 16.75 0.0 0.0 0.0 0.0 12 7 11
339 1 18.855045 10.885965306332507 16.75 0.0 0.0 0.0 0.0 13 7 11
340 1 20.251714999999997 10.885965306332507 16.75 0.0 0.0 0.0 0.0 14 7 11
341 1 16.76004 12.095517007036118 16.75 0.0 0.0 0.0 0.0 11 8 11
342 1 18.15671 12.095517007036118 16.75 0.0 0.0 0.0 0.0 12 8 11
343 1 18.855045 13.30506870773973 16.75 0.0 0.0 0.0 0.0 13 9 11
344 1 20.251714999999997 13.30506870773973 16.75 0.0 0.0 0.0 0.0 14 9 11
345 1 16.76004 14.514620408443342 16.75 0.0 0.0 0.0 0.0 11 10 11
346 1 18.15671 14.514620408443342 16.75 0.0 0.0 0.0 0.0 12 10 11
347 1 18.855045 15.724172109146954 16.75 0.0 0.0 0.0 0.0 13 11 11
348 1 20.251714999999997 15.724172109146954 16.75 0.0 0.0 0.0 0.0 14 11 11
349 1 16.76004 16.933723809850566 16.75 0.0 0.0 0.0 0.0 11 11 11
350 1 18.15671 16.933723809850566 16.75 0.0 0.0 0.0 0.0 12 11 11
351 1 18.855045 18.143275510554176 16.75 0.0 0.0 0.0 0.0 13 12 11
352 1 20.251714999999997 18.143275510554176 16.75 0.0 0.0 0.0 0.0 14 12 11
353 1 16.76004 19.35282721125779 16.75 0.0 0.0 0.0 0.0 11 13 11
354 1 18.15671 19.35282721125779 16.75 0.0 0.0 0.0 0.0 12 13 11
355 1 18.855045 20.562378911961403 16.75 0.0 0.0 0.0 0.0 13 14 11
356 1 20.251714999999997 20.562378911961403 16.75 0.0 0.0 0.0 0.0 14 14 11
357 1 16.76004 21.771930612665013 16.75 0.0 0.0 0.0 0.0 11 14 11
358 1 18.15671 21.771930612665013 16.75 0.0 0.0 0.0 0.0 12 14 11
359 1 18.855045 22.981482313368623 16.75 0.0 0.0 0.0 0.0 13 15 11
360 1 20.251714999999997 22.981482313368623 16.75 0.0 0.0 0.0 0.0 14 15 11
361 1 16.76004 24.191034014072237 16.75 0.0 0.0 0.0 0.0 11 16 11
362 1 18.15671 24.191034014072237 16.75 0.0 0.0 0.0 0.0 12 16 11
363 1 18.855045 25.40058571477585 16.75 0.0 0.0 0.0 0.0 13 17 11
364 1 20.251714999999997 25.40058571477585 16.75 0.0 0.0 0.0 0.0 14 17 11
365 1 16.76004 26.61013741547946 16.75 0.0 0.0 0.0 0.0 11 18 11
366 1 18.15671 26.61013741547946 16.75 0.0 0.0 0.0 0.0 12 18 11
367 1 18.855045 27.81968911618307 16.75 0.0 0.0 0.0 0.0 13 18 11
368 1 20.251714999999997 27.81968911618307 16.75 0.0 0.0 0.0 0.0 14 18 11
369 1 16.76004 29.029240816886684 16.75 0.0 0.0 0.0 0.0 11 19 11
370 1 18.15671 29.029240816886684 16.75 0.0 0.0 0.0 0.0 12 19 11
371 1 18.855045 30.238792517590298 16.75 0.0 0.0 0.0 0.0 13 20 11
372 1 20.251714999999997 30.238792517590298 16.75 0.0 0.0 0.0 0.0 14 20 11
373 1 16.76004 31.448344218293908 16.75 0.0 0.0 0.0 0.0 11 21 11
374 1 18.15671 31.448344218293908 16.75 0.0 0.0 0.0 0.0 12 21 11
375 1 18.855045 32.65789591899752 16.75 0.0 0.0 0.0 0.0 13 21 11
376 1 20.251714999999997 32.65789591899752 16.75 0.0 0.0 0.0 0.0 14 21 11
377 1 16.76004 33.86744761970113 16.75 0.0 0.0 0.0 0.0 11 22 11
378 1 18.15671 33.86744761970113 16.75 0.0 0.0 0.0 0.0 12 22 11
379 1 18.855045 35.076999320404745 16.75 0.0 0.0 0.0 0.0 13 23 11
380 1 20.251714999999997 35.076999320404745 16.75 0.0 0.0 0.0 0.0 14 23 11
381 1 16.76004 36.28655102110835 16.75 0.0 0.0 0.0 0.0 11 24 11
382 1 18.15671 36.28655102110835 16.75 0.0 0.0 0.0 0.0 12 24 11
383 1 18.855045 37.496102721811965 16.75 0.0 0.0 0.0 0.0 13 25 11
384 1 20.251714999999997 37.496102721811965 16.75 0.0 0.0 0.0 0.0 14 25 11
385 1 16.76004 38.70565442251558 16.75 0.0 0.0 0.0 0.0 11 25 11
386 1 18.15671 38.70565442251558 16.75 0.0 0.0 0.0 0.0 12 25 11
387 1 18.855045 39.91520612321919 16.75 0.0 0.0 0.0 0.0 13 26 11
388 1 20.251714999999997 39.91520612321919 16.75 0.0 0.0 0.0 0.0 14 26 11
389 1 16.76004 41.124757823922806 16.75 0.0 0.0 0.0 0.0 11 27 11
390 1 18.15671 41.124757823922806 16.75 0.0 0.0 0.0 0.0 12 27 11
391 1 18.855045 42.33430952462641 16.75 0.0 0.0 0.0 0.0 13 28 11
392 1 20.251714999999997 42.33430952462641 16.75 0.0 0.0 0.0 0.0 14 28 11
393 1 16.76004 43.543861225330026 16.75 0.0 0.0 0.0 0.0 11 28 11
394 1 18.15671 43.543861225330026 16.75 0.0 0.0 0.0 0.0 12 28 11
395 1 18.855045 44.75341292603364 16.75 0.0 0.0 0.0 0.0 13 29 11
396 1 20.251714999999997 44.75341292603364 16.75 0.0 0.0 0.0 0.0 14 29 11
397 1 16.76004 45.96296462673725 16.75 0.0 0.0 0.0 0.0 11 30 11
398 1 18.15671 45.96296462673725 16.75 0.0 0.0 0.0 0.0 12 30 11
399 1 18.855045 47.17251632744086 16.75 0.0 0.0 0.0 0.0 13 31 11
400 1 20.251714999999997 47.17251632744086 16.75 0.0 0.0 0.0 0.0 14 31 11
401 1 20.95005 0.0 16.75 0.0 0.0 0.0 0.0 14 1 11
402 1 22.346719999999998 0.0 16.75 0.0 0.0 0.0 0.0 15 1 11
403 1 23.045055 1.2095517007036118 16.75 0.0 0.0 0.0 0.0 15 1 11
404 1 24.441724999999998 1.2095517007036118 16.75 0.0 0.0 0.0 0.0 16 1 11
405 1 20.95005 2.4191034014072237 16.75 0.0 0.0 0.0 0.0 14 2 11
406 1 22.346719999999998 2.4191034014072237 16.75 0.0 0.0 0.0 0.0 15 2 11
407 1 23.045055 3.6286551021108355 16.75 0.0 0.0 0.0 0.0 15 3 11
408 1 24.441724999999998 3.6286551021108355 16.75 0.0 0.0 0.0 0.0 16 3 11
409 1 20.95005 4.838206802814447 16.75 0.0 0.0 0.0 0.0 14 4 11
410 1 22.346719999999998 4.838206802814447 16.75 0.0 0.0 0.0 0.0 15 4 11
411 1 23.045055 6.047758503518059 16.75 0.0 0.0 0.0 0.0 15 4 11
412 1 24.441724999999998 6.047758503518059 16.75 0.0 0.0 0.0 0.0 16 4 11
413 1 20.95005 7.257310204221671 16.75 0.0 0.0 0.0 0.0 14 5 11
414 1 22.346719999999998 7.257310204221671 16.75 0.0 0.0 0.0 0.0 15 5 11
415 1 23.045055 8.466861904925283 16.75 0.0 0.0 0.0 0.0 15 6 11
416 1 24.441724999999998 8.466861904925283 16.75 0.0 0.0 0.0 0.0 16 6 11
417 1 20.95005 9.676413605628895 16.75 0.0 0.0 0.0 0.0 14 7 11
418 1 22.346719999999998 9.676413605628895 16.75 0.0 0.0 0.0 0.0 15 7 11
419 1 23.045055 10.885965306332507 16.75 0.0 0.0 0.0 0.0 15 7 11
420 1 24.441724999999998 10.885965306332507 16.75 0.0 0.0 0.0 0.0 16 7 11
421 1 20.95005 12.095517007036118 16.75 0.0 0.0 0.0 0.0 14 8 11
422 1 22.346719999999998 12.095517007036118 16.75 0.0 0.0 0.0 0.0 15 8 11
423 1 23.045055 13.30506870773973 16.75 0.0 0.0 0.0 0.0 15 9 11
424 1 24.441724999999998 13.30506870773973 16.75 0.0 0.0 0.0 0.0 16 9 11
425 1 20.95005 14.514620408443342 16.75 0.0 0.0 0.0 0.0 14 10 11
426 1 22.346719999999998 14.514620408443342 16.75 0.0 0.0 0.0 0.0 15 10 11
427 1 23.045055 15.724172109146954 16.75 0.0 0.0 0.0 0.0 15 11 11
428 1 24.441724999999998 15.724172109146954 16.75 0.0 0.0 0.0 0.0 16 11 11
429 1 20.95005 16.933723809850566 16.75 0.0 0.0 0.0 0.0 14 11 11
430 1 22.346719999999998 16.933723809850566 16.75 0.0 0.0 0.0 0.0 15 11 11
431 1 23.045055 18.143275510554176 16.75 0.0 0.0 0.0 0.0 15 12 11
432 1 24.441724999999998 18.143275510554176 16.75 0.0 0.0 0.0 0.0 16 12 11
433 1 20.95005 19.35282721125779 16.75 0.0 0.0 0.0 0.0 14 13 11
434 1 22.346719999999998 19.35282721125779 16.75 0.0 0.0 0.0 0.0 15 13 11
435 1 23.045055 20.562378911961403 16.75 0.0 0.0 0.0 0.0 15 14 11
436 1 24.441724999999998 20.562378911961403 16.75 0.0 0.0 0.0 0.0 16 14 11
437 1 20.95005 21.771930612665013 16.75 0.0 0.0 0.0 0.0 14 14 11
438 1 22.346719999999998 21.771930612665013 16.75 0.0 0.0 0.0 0.0 15 14 11
439 1 23.045055 22.981482313368623 16.75 0.0 0.0 0.0 0.0 15 15 11
440 1 24.441724999999998 22.981482313368623 16.75 0.0 0.0 0.0 0.0 16 15 11
441 1 20.95005 24.191034014072237 16.75 0.0 0.0 0.0 0.0 14 16 11
442 1 22.346719999999998 24.191034014072237 16.75 0.0 0.0 0.0 0.0 15 16 11
443 1 23.045055 25.40058571477585 16.75 0.0 0.0 0.0 0.0 15 17 11
444 1 24.441724999999998 25.40058571477585 16.75 0.0 0.0 0.0 0.0 16 17 11
445 1 20.95005 26.61013741547946 16.75 0.0 0.0 0.0 0.0 14 18 11
446 1 22.346719999999998 26.61013741547946 16.75 0.0 0.0 0.0 0.0 15 18 11
447 1 23.045055 27.81968911618307 16.75 0.0 0.0 0.0 0.0 15 18 11
448 1 24.441724999999998 27.81968911618307 16.75 0.0 0.0 0.0 0.0 16 18 11
449 1 20.95005 29.029240816886684 16.75 0.0 0.0 0.0 0.0 14 19 11
450 1 22.346719999999998 29.029240816886684 16.75 0.0 0.0 0.0 0.0 15 19 11
451 1 23.045055 30.238792517590298 16.75 0.0 0.0 0.0 0.0 15 20 11